
     Program PWSCF v.5.0        starts on  6Dec2012 at 16: 7:30 

     This program is part of the open-source Quantum ESPRESSO suite
     for quantum simulation of materials; please cite
         "P. Giannozzi et al., J. Phys.:Condens. Matter 21 395502 (2009);
          URL http://www.quantum-espresso.org", 
     in publications or presentations arising from this work. More details at
     http://www.quantum-espresso.org/quote.php

     Parallel version (MPI & OpenMP), running on    32 processor cores
     Number of MPI processes:              32
     Threads/MPI process:                  1
     R & G space division:  proc/pool =   32

     Current dimensions of program PWSCF are:
     Max number of different atomic species (ntypx) = 10
     Max number of k-points (npk) =  40000
     Max angular momentum in pseudopotentials (lmaxx) =  3
     Waiting for input...
     Reading input from standard input

     Subspace diagonalization in iterative solution of the eigenvalue problem:
     scalapack distributed-memory algorithm (size of sub-group:  4*  4 procs)

 EFIELD CART 2*0.,  1.00000000000000002E-3
 EFIELD CART 2*0.,  1.00000000000000002E-3
 EFIELD CART 2*0.,  1.00000000000000002E-3
 EFIELD CRY 2*0.,  1.00000000000000002E-3
 EFIELD CART 2*0.,  1.00000000000000002E-3
 EFIELD CRY 2*0.,  1.00000000000000002E-3
 EFIELD CRY 2*0.,  1.00000000000000002E-3
 BG1 1.,  2*0.
 EFIELD CRY 2*0.,  1.00000000000000002E-3
 BG1 1.,  2*0.
 BG1 1.,  2*0.
 BG1 1.,  2*0.
 BG1 1.,  2*0.
 BG1 1.,  2*0.
 BG1 1.,  2*0.
 BG1 1.,  2*0.
 EFIELD CART 2*0.,  1.00000000000000002E-3
 EFIELD CART 2*0.,  1.00000000000000002E-3
 EFIELD CART 2*0.,  1.00000000000000002E-3
 EFIELD CRY 2*0.,  1.00000000000000002E-3
 EFIELD CRY 2*0.,  1.00000000000000002E-3
 EFIELD CART 2*0.,  1.00000000000000002E-3
 BG1 1.,  2*0.
 nx_el1 1,  22,  43,  2,  23,  44,  3,  24,  45,  4,  25,  46,  5,  26,  47,  6,  27,  48,  7,  28,  49,  8,  29,  50,  9,  30,  51,
 nx_el1 1,  22,  43,  2,  23,  44,  3,  24,  45,  4,  25,  46,  5,  26,  47,  6,  27,  48,  7,  28,  49,  8,  29,  50,  9,  30,  51,
 EFIELD CRY 2*0.,  1.00000000000000002E-3
 EFIELD CRY 2*0.,  1.00000000000000002E-3
 10,  31,  52,  11,  32,  53,  12,  33,  54,  13,  34,  55,  14,  35,  56,  15,  36,  57,  16,  37,  58,  17,  38,  59,  18,  39,  60
 EFIELD CART 2*0.,  1.00000000000000002E-3
 BG1 1.,  2*0.
 EFIELD CART 2*0.,  1.00000000000000002E-3
 BG1 1.,  2*0.
 EFIELD CART 2*0.,  1.00000000000000002E-3
 EFIELD CART 2*0.,  1.00000000000000002E-3
 EFIELD CART 2*0.,  1.00000000000000002E-3
 nx_el1 1,  22,  43,  2,  23,  44,  3,  24,  45,  4,  25,  46,  5,  26,  47,  6,  27,  48,  7,  28,  49,  8,  29,  50,  9,  30,  51,
 EFIELD CART 2*0.,  1.00000000000000002E-3
 EFIELD CART 2*0.,  1.00000000000000002E-3
 EFIELD CART 2*0.,  1.00000000000000002E-3
 EFIELD CART 2*0.,  1.00000000000000002E-3
 EFIELD CRY 2*0.,  1.00000000000000002E-3
 EFIELD CART 2*0.,  1.00000000000000002E-3
 10,  31,  52,  11,  32,  53,  12,  33,  54,  13,  34,  55,  14,  35,  56,  15,  36,  57,  16,  37,  58,  17,  38,  59,  18,  39,  60
 EFIELD CART 2*0.,  1.00000000000000002E-3
 EFIELD CART 2*0.,  1.00000000000000002E-3
 EFIELD CART 2*0.,  1.00000000000000002E-3
 EFIELD CART 2*0.,  1.00000000000000002E-3
 EFIELD CRY 2*0.,  1.00000000000000002E-3
 nx_el1 1,  22,  43,  2,  23,  44,  3,  24,  45,  4,  25,  46,  5,  26,  47,  6,  27,  48,  7,  28,  49,  8,  29,  50,  9,  30,  51,
 BG1 1.,  2*0.
 EFIELD CRY 2*0.,  1.00000000000000002E-3
 EFIELD CRY 2*0.,  1.00000000000000002E-3
 EFIELD CRY 2*0.,  1.00000000000000002E-3
 BG1 1.,  2*0.
 EFIELD CART 2*0.,  1.00000000000000002E-3
 EFIELD CART 2*0.,  1.00000000000000002E-3
 BG1 1.,  2*0.
 EFIELD CRY 2*0.,  1.00000000000000002E-3
 19,  40,  61,  20,  41,  62,  21,  42,  63
 EFIELD CART 2*0.,  1.00000000000000002E-3
 BG1 1.,  2*0.
 BG1 1.,  2*0.
 EFIELD CRY 2*0.,  1.00000000000000002E-3
 EFIELD CRY 2*0.,  1.00000000000000002E-3
 EFIELD CART 2*0.,  1.00000000000000002E-3
 EFIELD CRY 2*0.,  1.00000000000000002E-3
 EFIELD CRY 2*0.,  1.00000000000000002E-3
 10,  31,  52,  11,  32,  53,  12,  33,  54,  13,  34,  55,  14,  35,  56,  15,  36,  57,  16,  37,  58,  17,  38,  59,  18,  39,  60
 EFIELD CRY 2*0.,  1.00000000000000002E-3
 10,  31,  52,  11,  32,  53,  12,  33,  54,  13,  34,  55,  14,  35,  56,  15,  36,  57,  16,  37,  58,  17,  38,  59,  18,  39,  60
 EFIELD CART 2*0.,  1.00000000000000002E-3
 19,  40,  61,  20,  41,  62,  21,  42,  63
 EFIELD CRY 2*0.,  1.00000000000000002E-3
 BG1 1.,  2*0.
 EFIELD CRY 2*0.,  1.00000000000000002E-3
 BG1 1.,  2*0.
 EFIELD CRY 2*0.,  1.00000000000000002E-3
 EFIELD CART 2*0.,  1.00000000000000002E-3
 BG1 1.,  2*0.
 BG1 1.,  2*0.
 BG1 1.,  2*0.
 BG1 1.,  2*0.
 EFIELD CRY 2*0.,  1.00000000000000002E-3
 BG1 1.,  2*0.
 19,  40,  61,  20,  41,  62,  21,  42,  63
 BG1 1.,  2*0.
 BG1 1.,  2*0.
 nx_el1 1,  22,  43,  2,  23,  44,  3,  24,  45,  4,  25,  46,  5,  26,  47,  6,  27,  48,  7,  28,  49,  8,  29,  50,  9,  30,  51,
 nx_el1 1,  22,  43,  2,  23,  44,  3,  24,  45,  4,  25,  46,  5,  26,  47,  6,  27,  48,  7,  28,  49,  8,  29,  50,  9,  30,  51,
 BG1 1.,  2*0.
 BG1 1.,  2*0.
 EFIELD CART 2*0.,  1.00000000000000002E-3
 EFIELD CRY 2*0.,  1.00000000000000002E-3
 BG1 1.,  2*0.
 BG1 1.,  2*0.
 EFIELD CRY 2*0.,  1.00000000000000002E-3
 EFIELD CART 2*0.,  1.00000000000000002E-3
 BG1 1.,  2*0.
 BG1 1.,  2*0.
 EFIELD CRY 2*0.,  1.00000000000000002E-3
 BG1 1.,  2*0.
 BG1 1.,  2*0.
 EFIELD CRY 2*0.,  1.00000000000000002E-3
 10,  31,  52,  11,  32,  53,  12,  33,  54,  13,  34,  55,  14,  35,  56,  15,  36,  57,  16,  37,  58,  17,  38,  59,  18,  39,  60
 BG1 1.,  2*0.
 BG1 1.,  2*0.
 nx_el1 1,  22,  43,  2,  23,  44,  3,  24,  45,  4,  25,  46,  5,  26,  47,  6,  27,  48,  7,  28,  49,  8,  29,  50,  9,  30,  51,
 nx_el1 1,  22,  43,  2,  23,  44,  3,  24,  45,  4,  25,  46,  5,  26,  47,  6,  27,  48,  7,  28,  49,  8,  29,  50,  9,  30,  51,
 BG1 1.,  2*0.
 19,  40,  61,  20,  41,  62,  21,  42,  63
 BG1 1.,  2*0.
 BG1 1.,  2*0.
 EFIELD CRY 2*0.,  1.00000000000000002E-3
 nx_el1 1,  22,  43,  2,  23,  44,  3,  24,  45,  4,  25,  46,  5,  26,  47,  6,  27,  48,  7,  28,  49,  8,  29,  50,  9,  30,  51,
 10,  31,  52,  11,  32,  53,  12,  33,  54,  13,  34,  55,  14,  35,  56,  15,  36,  57,  16,  37,  58,  17,  38,  59,  18,  39,  60
 BG1 1.,  2*0.
 19,  40,  61,  20,  41,  62,  21,  42,  63
 BG1 1.,  2*0.
 19,  40,  61,  20,  41,  62,  21,  42,  63
 EFIELD CART 2*0.,  1.00000000000000002E-3
 BG1 1.,  2*0.
 BG1 1.,  2*0.
 EFIELD CRY 2*0.,  1.00000000000000002E-3
 10,  31,  52,  11,  32,  53,  12,  33,  54,  13,  34,  55,  14,  35,  56,  15,  36,  57,  16,  37,  58,  17,  38,  59,  18,  39,  60
 nx_el1 1,  22,  43,  2,  23,  44,  3,  24,  45,  4,  25,  46,  5,  26,  47,  6,  27,  48,  7,  28,  49,  8,  29,  50,  9,  30,  51,
 nx_el1 1,  22,  43,  2,  23,  44,  3,  24,  45,  4,  25,  46,  5,  26,  47,  6,  27,  48,  7,  28,  49,  8,  29,  50,  9,  30,  51,
 nx_el1 1,  22,  43,  2,  23,  44,  3,  24,  45,  4,  25,  46,  5,  26,  47,  6,  27,  48,  7,  28,  49,  8,  29,  50,  9,  30,  51,
 19,  40,  61,  20,  41,  62,  21,  42,  63
 EFIELD CRY 2*0.,  1.00000000000000002E-3
 EFIELD CART 2*0.,  1.00000000000000002E-3
 10,  31,  52,  11,  32,  53,  12,  33,  54,  13,  34,  55,  14,  35,  56,  15,  36,  57,  16,  37,  58,  17,  38,  59,  18,  39,  60
 nx_el1 1,  22,  43,  2,  23,  44,  3,  24,  45,  4,  25,  46,  5,  26,  47,  6,  27,  48,  7,  28,  49,  8,  29,  50,  9,  30,  51,
 BG1 1.,  2*0.
 nx_el1 1,  22,  43,  2,  23,  44,  3,  24,  45,  4,  25,  46,  5,  26,  47,  6,  27,  48,  7,  28,  49,  8,  29,  50,  9,  30,  51,
 BG1 1.,  2*0.
 nx_el1 1,  22,  43,  2,  23,  44,  3,  24,  45,  4,  25,  46,  5,  26,  47,  6,  27,  48,  7,  28,  49,  8,  29,  50,  9,  30,  51,
 10,  31,  52,  11,  32,  53,  12,  33,  54,  13,  34,  55,  14,  35,  56,  15,  36,  57,  16,  37,  58,  17,  38,  59,  18,  39,  60
 BG1 1.,  2*0.
 10,  31,  52,  11,  32,  53,  12,  33,  54,  13,  34,  55,  14,  35,  56,  15,  36,  57,  16,  37,  58,  17,  38,  59,  18,  39,  60
 nx_el1 1,  22,  43,  2,  23,  44,  3,  24,  45,  4,  25,  46,  5,  26,  47,  6,  27,  48,  7,  28,  49,  8,  29,  50,  9,  30,  51,
 10,  31,  52,  11,  32,  53,  12,  33,  54,  13,  34,  55,  14,  35,  56,  15,  36,  57,  16,  37,  58,  17,  38,  59,  18,  39,  60
 BG1 1.,  2*0.
 10,  31,  52,  11,  32,  53,  12,  33,  54,  13,  34,  55,  14,  35,  56,  15,  36,  57,  16,  37,  58,  17,  38,  59,  18,  39,  60
 10,  31,  52,  11,  32,  53,  12,  33,  54,  13,  34,  55,  14,  35,  56,  15,  36,  57,  16,  37,  58,  17,  38,  59,  18,  39,  60
 19,  40,  61,  20,  41,  62,  21,  42,  63
 19,  40,  61,  20,  41,  62,  21,  42,  63
 10,  31,  52,  11,  32,  53,  12,  33,  54,  13,  34,  55,  14,  35,  56,  15,  36,  57,  16,  37,  58,  17,  38,  59,  18,  39,  60
 EFIELD CRY 2*0.,  1.00000000000000002E-3
 BG1 1.,  2*0.
 nx_el1 1,  22,  43,  2,  23,  44,  3,  24,  45,  4,  25,  46,  5,  26,  47,  6,  27,  48,  7,  28,  49,  8,  29,  50,  9,  30,  51,
 BG1 1.,  2*0.
 BG1 1.,  2*0.
 BG1 1.,  2*0.
 10,  31,  52,  11,  32,  53,  12,  33,  54,  13,  34,  55,  14,  35,  56,  15,  36,  57,  16,  37,  58,  17,  38,  59,  18,  39,  60
 EFIELD CRY 2*0.,  1.00000000000000002E-3
 BG1 1.,  2*0.
 nx_el1 1,  22,  43,  2,  23,  44,  3,  24,  45,  4,  25,  46,  5,  26,  47,  6,  27,  48,  7,  28,  49,  8,  29,  50,  9,  30,  51,
 nx_el1 1,  22,  43,  2,  23,  44,  3,  24,  45,  4,  25,  46,  5,  26,  47,  6,  27,  48,  7,  28,  49,  8,  29,  50,  9,  30,  51,
 19,  40,  61,  20,  41,  62,  21,  42,  63
 BG1 1.,  2*0.
 nx_el1 1,  22,  43,  2,  23,  44,  3,  24,  45,  4,  25,  46,  5,  26,  47,  6,  27,  48,  7,  28,  49,  8,  29,  50,  9,  30,  51,
 10,  31,  52,  11,  32,  53,  12,  33,  54,  13,  34,  55,  14,  35,  56,  15,  36,  57,  16,  37,  58,  17,  38,  59,  18,  39,  60
 10,  31,  52,  11,  32,  53,  12,  33,  54,  13,  34,  55,  14,  35,  56,  15,  36,  57,  16,  37,  58,  17,  38,  59,  18,  39,  60
 19,  40,  61,  20,  41,  62,  21,  42,  63
 nx_el1 1,  22,  43,  2,  23,  44,  3,  24,  45,  4,  25,  46,  5,  26,  47,  6,  27,  48,  7,  28,  49,  8,  29,  50,  9,  30,  51,
 BG1 1.,  2*0.
 19,  40,  61,  20,  41,  62,  21,  42,  63
 19,  40,  61,  20,  41,  62,  21,  42,  63
 10,  31,  52,  11,  32,  53,  12,  33,  54,  13,  34,  55,  14,  35,  56,  15,  36,  57,  16,  37,  58,  17,  38,  59,  18,  39,  60
 10,  31,  52,  11,  32,  53,  12,  33,  54,  13,  34,  55,  14,  35,  56,  15,  36,  57,  16,  37,  58,  17,  38,  59,  18,  39,  60
 BG1 1.,  2*0.
 nx_el1 1,  22,  43,  2,  23,  44,  3,  24,  45,  4,  25,  46,  5,  26,  47,  6,  27,  48,  7,  28,  49,  8,  29,  50,  9,  30,  51,
 nx_el1 1,  22,  43,  2,  23,  44,  3,  24,  45,  4,  25,  46,  5,  26,  47,  6,  27,  48,  7,  28,  49,  8,  29,  50,  9,  30,  51,
 19,  40,  61,  20,  41,  62,  21,  42,  63
 BG1 1.,  2*0.
 10,  31,  52,  11,  32,  53,  12,  33,  54,  13,  34,  55,  14,  35,  56,  15,  36,  57,  16,  37,  58,  17,  38,  59,  18,  39,  60
 BG1 1.,  2*0.
 BG1 1.,  2*0.
 19,  40,  61,  20,  41,  62,  21,  42,  63
 10,  31,  52,  11,  32,  53,  12,  33,  54,  13,  34,  55,  14,  35,  56,  15,  36,  57,  16,  37,  58,  17,  38,  59,  18,  39,  60
 BG1 1.,  2*0.
 10,  31,  52,  11,  32,  53,  12,  33,  54,  13,  34,  55,  14,  35,  56,  15,  36,  57,  16,  37,  58,  17,  38,  59,  18,  39,  60
 10,  31,  52,  11,  32,  53,  12,  33,  54,  13,  34,  55,  14,  35,  56,  15,  36,  57,  16,  37,  58,  17,  38,  59,  18,  39,  60
 nx_el1 1,  22,  43,  2,  23,  44,  3,  24,  45,  4,  25,  46,  5,  26,  47,  6,  27,  48,  7,  28,  49,  8,  29,  50,  9,  30,  51,
 19,  40,  61,  20,  41,  62,  21,  42,  63
 19,  40,  61,  20,  41,  62,  21,  42,  63
 19,  40,  61,  20,  41,  62,  21,  42,  63
 19,  40,  61,  20,  41,  62,  21,  42,  63
 BG1 1.,  2*0.
 BG1 1.,  2*0.
 19,  40,  61,  20,  41,  62,  21,  42,  63
 nx_el1 1,  22,  43,  2,  23,  44,  3,  24,  45,  4,  25,  46,  5,  26,  47,  6,  27,  48,  7,  28,  49,  8,  29,  50,  9,  30,  51,
 10,  31,  52,  11,  32,  53,  12,  33,  54,  13,  34,  55,  14,  35,  56,  15,  36,  57,  16,  37,  58,  17,  38,  59,  18,  39,  60
 19,  40,  61,  20,  41,  62,  21,  42,  63
 nx_el1 1,  22,  43,  2,  23,  44,  3,  24,  45,  4,  25,  46,  5,  26,  47,  6,  27,  48,  7,  28,  49,  8,  29,  50,  9,  30,  51,
 19,  40,  61,  20,  41,  62,  21,  42,  63
 19,  40,  61,  20,  41,  62,  21,  42,  63
 nx_el1 1,  22,  43,  2,  23,  44,  3,  24,  45,  4,  25,  46,  5,  26,  47,  6,  27,  48,  7,  28,  49,  8,  29,  50,  9,  30,  51,
 nx_el1 1,  22,  43,  2,  23,  44,  3,  24,  45,  4,  25,  46,  5,  26,  47,  6,  27,  48,  7,  28,  49,  8,  29,  50,  9,  30,  51,
 10,  31,  52,  11,  32,  53,  12,  33,  54,  13,  34,  55,  14,  35,  56,  15,  36,  57,  16,  37,  58,  17,  38,  59,  18,  39,  60
 nx_el1 1,  22,  43,  2,  23,  44,  3,  24,  45,  4,  25,  46,  5,  26,  47,  6,  27,  48,  7,  28,  49,  8,  29,  50,  9,  30,  51,
 10,  31,  52,  11,  32,  53,  12,  33,  54,  13,  34,  55,  14,  35,  56,  15,  36,  57,  16,  37,  58,  17,  38,  59,  18,  39,  60
 nx_el1 1,  22,  43,  2,  23,  44,  3,  24,  45,  4,  25,  46,  5,  26,  47,  6,  27,  48,  7,  28,  49,  8,  29,  50,  9,  30,  51,
 BG1 1.,  2*0.
 19,  40,  61,  20,  41,  62,  21,  42,  63
 10,  31,  52,  11,  32,  53,  12,  33,  54,  13,  34,  55,  14,  35,  56,  15,  36,  57,  16,  37,  58,  17,  38,  59,  18,  39,  60
 10,  31,  52,  11,  32,  53,  12,  33,  54,  13,  34,  55,  14,  35,  56,  15,  36,  57,  16,  37,  58,  17,  38,  59,  18,  39,  60
 BG1 1.,  2*0.
 BG1 1.,  2*0.
 19,  40,  61,  20,  41,  62,  21,  42,  63
 10,  31,  52,  11,  32,  53,  12,  33,  54,  13,  34,  55,  14,  35,  56,  15,  36,  57,  16,  37,  58,  17,  38,  59,  18,  39,  60
 19,  40,  61,  20,  41,  62,  21,  42,  63
 19,  40,  61,  20,  41,  62,  21,  42,  63
 10,  31,  52,  11,  32,  53,  12,  33,  54,  13,  34,  55,  14,  35,  56,  15,  36,  57,  16,  37,  58,  17,  38,  59,  18,  39,  60
 19,  40,  61,  20,  41,  62,  21,  42,  63
 BG1 1.,  2*0.
 nx_el1 1,  22,  43,  2,  23,  44,  3,  24,  45,  4,  25,  46,  5,  26,  47,  6,  27,  48,  7,  28,  49,  8,  29,  50,  9,  30,  51,
 19,  40,  61,  20,  41,  62,  21,  42,  63
 19,  40,  61,  20,  41,  62,  21,  42,  63
 nx_el1 1,  22,  43,  2,  23,  44,  3,  24,  45,  4,  25,  46,  5,  26,  47,  6,  27,  48,  7,  28,  49,  8,  29,  50,  9,  30,  51,
 10,  31,  52,  11,  32,  53,  12,  33,  54,  13,  34,  55,  14,  35,  56,  15,  36,  57,  16,  37,  58,  17,  38,  59,  18,  39,  60
 19,  40,  61,  20,  41,  62,  21,  42,  63
 10,  31,  52,  11,  32,  53,  12,  33,  54,  13,  34,  55,  14,  35,  56,  15,  36,  57,  16,  37,  58,  17,  38,  59,  18,  39,  60
 19,  40,  61,  20,  41,  62,  21,  42,  63
     Found symmetry operation: I + ( -0.5000 -0.5000  0.0000)
     This is a supercell, fractional translations are disabled
 
     Parallelization info
     --------------------
     sticks:   dense  smooth     PW     G-vecs:    dense   smooth      PW
     Min          20      20      7                  400      400      77
     Max          21      21      8                  405      405      81
     Sum         665     665    225                12893    12893    2553
 


     bravais-lattice index     =            1
     lattice parameter (alat)  =      10.1800  a.u.
     unit-cell volume          =    1054.9778 (a.u.)^3
     number of atoms/cell      =            8
     number of atomic types    =            1
     number of electrons       =        32.00
     number of Kohn-Sham states=           16
     kinetic-energy cutoff     =      20.0000  Ry
     charge density cutoff     =      80.0000  Ry
     convergence threshold     =      1.0E-08
     mixing beta               =       0.5000
     number of iterations used =            8  plain     mixing
     Exchange-correlation      =  SLA  PW   PBE  PBE ( 1 4 3 4 0)
     EXX-fraction              =        0.00
 
     Using Berry phase electric field
     In a.u.(Ry)  cartesian system of reference
        0.0000000000
        0.0000000000
        0.0010000000
     In a.u.(Ry)  crystal system of reference
        0.0000000000
        0.0000000000
        0.0010000000
     Number of iterative cycles:   3
 

     celldm(1)=  10.180000  celldm(2)=   0.000000  celldm(3)=   0.000000
     celldm(4)=   0.000000  celldm(5)=   0.000000  celldm(6)=   0.000000

     crystal axes: (cart. coord. in units of alat)
               a(1) = (   1.000000   0.000000   0.000000 )  
               a(2) = (   0.000000   1.000000   0.000000 )  
               a(3) = (   0.000000   0.000000   1.000000 )  

     reciprocal axes: (cart. coord. in units 2 pi/alat)
               b(1) = (  1.000000  0.000000  0.000000 )  
               b(2) = (  0.000000  1.000000  0.000000 )  
               b(3) = (  0.000000  0.000000  1.000000 )  


     PseudoPot. # 1 for Si read from file:
     /usr/local/usp/espresso/5.0/espresso-5.0/pseudo/Si.pbe-rrkj.UPF
     MD5 check sum: cf7ab5690cd9a85b22c4813f7e365554
     Pseudo is Norm-conserving, Zval =  4.0
     Generated by new atomic code, or converted to UPF format
     Using radial grid of  883 points,  3 beta functions with: 
                l(1) =   0
                l(2) =   0
                l(3) =   1

     atomic species   valence    mass     pseudopotential
        Si             4.00    28.08600     Si( 1.00)

     No symmetry found



   Cartesian axes

     site n.     atom                  positions (alat units)
         1           Si  tau(   1) = (  -0.1250000  -0.1250000  -0.1250000  )
         2           Si  tau(   2) = (   0.3750000   0.3750000  -0.1250000  )
         3           Si  tau(   3) = (   0.3750000  -0.1250000   0.3750000  )
         4           Si  tau(   4) = (  -0.1250000   0.3750000   0.3750000  )
         5           Si  tau(   5) = (   0.1250000   0.1250000   0.1250000  )
         6           Si  tau(   6) = (   0.6250000   0.6250000   0.1250000  )
         7           Si  tau(   7) = (   0.6250000   0.1250000   0.6250000  )
         8           Si  tau(   8) = (   0.1250000   0.6250000   0.6250000  )

     number of k points=    63
                       cart. coord. in units 2pi/alat
        k(    1) = (   0.0000000   0.0000000   0.0000000), wk =   0.0317460
        k(    2) = (   0.0000000   0.0000000   0.1428571), wk =   0.0317460
        k(    3) = (   0.0000000   0.0000000   0.2857143), wk =   0.0317460
        k(    4) = (   0.0000000   0.0000000   0.4285714), wk =   0.0317460
        k(    5) = (   0.0000000   0.0000000   0.5714286), wk =   0.0317460
        k(    6) = (   0.0000000   0.0000000   0.7142857), wk =   0.0317460
        k(    7) = (   0.0000000   0.0000000   0.8571429), wk =   0.0317460
        k(    8) = (   0.0000000   0.3333333   0.0000000), wk =   0.0317460
        k(    9) = (   0.0000000   0.3333333   0.1428571), wk =   0.0317460
        k(   10) = (   0.0000000   0.3333333   0.2857143), wk =   0.0317460
        k(   11) = (   0.0000000   0.3333333   0.4285714), wk =   0.0317460
        k(   12) = (   0.0000000   0.3333333   0.5714286), wk =   0.0317460
        k(   13) = (   0.0000000   0.3333333   0.7142857), wk =   0.0317460
        k(   14) = (   0.0000000   0.3333333   0.8571429), wk =   0.0317460
        k(   15) = (   0.0000000   0.6666667   0.0000000), wk =   0.0317460
        k(   16) = (   0.0000000   0.6666667   0.1428571), wk =   0.0317460
        k(   17) = (   0.0000000   0.6666667   0.2857143), wk =   0.0317460
        k(   18) = (   0.0000000   0.6666667   0.4285714), wk =   0.0317460
        k(   19) = (   0.0000000   0.6666667   0.5714286), wk =   0.0317460
        k(   20) = (   0.0000000   0.6666667   0.7142857), wk =   0.0317460
        k(   21) = (   0.0000000   0.6666667   0.8571429), wk =   0.0317460
        k(   22) = (   0.3333333   0.0000000   0.0000000), wk =   0.0317460
        k(   23) = (   0.3333333   0.0000000   0.1428571), wk =   0.0317460
        k(   24) = (   0.3333333   0.0000000   0.2857143), wk =   0.0317460
        k(   25) = (   0.3333333   0.0000000   0.4285714), wk =   0.0317460
        k(   26) = (   0.3333333   0.0000000   0.5714286), wk =   0.0317460
        k(   27) = (   0.3333333   0.0000000   0.7142857), wk =   0.0317460
        k(   28) = (   0.3333333   0.0000000   0.8571429), wk =   0.0317460
        k(   29) = (   0.3333333   0.3333333   0.0000000), wk =   0.0317460
        k(   30) = (   0.3333333   0.3333333   0.1428571), wk =   0.0317460
        k(   31) = (   0.3333333   0.3333333   0.2857143), wk =   0.0317460
        k(   32) = (   0.3333333   0.3333333   0.4285714), wk =   0.0317460
        k(   33) = (   0.3333333   0.3333333   0.5714286), wk =   0.0317460
        k(   34) = (   0.3333333   0.3333333   0.7142857), wk =   0.0317460
        k(   35) = (   0.3333333   0.3333333   0.8571429), wk =   0.0317460
        k(   36) = (   0.3333333   0.6666667   0.0000000), wk =   0.0317460
        k(   37) = (   0.3333333   0.6666667   0.1428571), wk =   0.0317460
        k(   38) = (   0.3333333   0.6666667   0.2857143), wk =   0.0317460
        k(   39) = (   0.3333333   0.6666667   0.4285714), wk =   0.0317460
        k(   40) = (   0.3333333   0.6666667   0.5714286), wk =   0.0317460
        k(   41) = (   0.3333333   0.6666667   0.7142857), wk =   0.0317460
        k(   42) = (   0.3333333   0.6666667   0.8571429), wk =   0.0317460
        k(   43) = (   0.6666667   0.0000000   0.0000000), wk =   0.0317460
        k(   44) = (   0.6666667   0.0000000   0.1428571), wk =   0.0317460
        k(   45) = (   0.6666667   0.0000000   0.2857143), wk =   0.0317460
        k(   46) = (   0.6666667   0.0000000   0.4285714), wk =   0.0317460
        k(   47) = (   0.6666667   0.0000000   0.5714286), wk =   0.0317460
        k(   48) = (   0.6666667   0.0000000   0.7142857), wk =   0.0317460
        k(   49) = (   0.6666667   0.0000000   0.8571429), wk =   0.0317460
        k(   50) = (   0.6666667   0.3333333   0.0000000), wk =   0.0317460
        k(   51) = (   0.6666667   0.3333333   0.1428571), wk =   0.0317460
        k(   52) = (   0.6666667   0.3333333   0.2857143), wk =   0.0317460
        k(   53) = (   0.6666667   0.3333333   0.4285714), wk =   0.0317460
        k(   54) = (   0.6666667   0.3333333   0.5714286), wk =   0.0317460
        k(   55) = (   0.6666667   0.3333333   0.7142857), wk =   0.0317460
        k(   56) = (   0.6666667   0.3333333   0.8571429), wk =   0.0317460
        k(   57) = (   0.6666667   0.6666667   0.0000000), wk =   0.0317460
        k(   58) = (   0.6666667   0.6666667   0.1428571), wk =   0.0317460
        k(   59) = (   0.6666667   0.6666667   0.2857143), wk =   0.0317460
        k(   60) = (   0.6666667   0.6666667   0.4285714), wk =   0.0317460
        k(   61) = (   0.6666667   0.6666667   0.5714286), wk =   0.0317460
        k(   62) = (   0.6666667   0.6666667   0.7142857), wk =   0.0317460
        k(   63) = (   0.6666667   0.6666667   0.8571429), wk =   0.0317460

     Dense  grid:    12893 G-vectors     FFT dimensions: (  30,  30,  30)

     Largest allocated arrays     est. size (Mb)     dimensions
        Kohn-Sham Wavefunctions         0.01 Mb     (     50,   16)
        NL pseudopotentials             0.03 Mb     (     50,   40)
        Each V/rho on FFT grid          0.01 Mb     (    900)
        Each G-vector array             0.00 Mb     (    405)
        G-vector shells                 0.00 Mb     (    112)
     Largest temporary arrays     est. size (Mb)     dimensions
        Auxiliary wavefunctions         0.05 Mb     (     50,   64)
        Each subspace H/S matrix        0.00 Mb     (  16,  16)
        Each <psi_i|beta_j> matrix      0.01 Mb     (     40,   16)
        Arrays for rho mixing           0.11 Mb     (    900,   8)

     Initial potential from superposition of free atoms

     starting charge   31.99557, renormalised to   32.00000
     Starting wfc are random

     total cpu time spent up to now is        0.9 secs

     per-process dynamical memory:     6.1 Mb

     Self-consistent Calculation

     iteration #  1     ecut=    20.00 Ry     beta=0.50
     Davidson diagonalization with overlap
     ethr =  1.00E-02,  avg # of iterations =  7.8
     Davidson diagonalization with overlap
     ethr =  1.00E-02,  avg # of iterations =  2.0
     Davidson diagonalization with overlap
     ethr =  1.00E-02,  avg # of iterations =  1.0

     Threshold (ethr) on eigenvalues was too large:
     Diagonalizing with lowered threshold

     Davidson diagonalization with overlap
     ethr =  7.62E-04,  avg # of iterations =  1.3
     Davidson diagonalization with overlap
     ethr =  7.62E-04,  avg # of iterations =  1.0
     Davidson diagonalization with overlap
     ethr =  7.62E-04,  avg # of iterations =  1.0
 
     Expectation value of exp(iGx): (9.85902401800924227E-2,3.63877621989204688E-4),  1.
     Electronic Dipole per cell (Ry a.u.) 1.69134558613413706E-2
     Ionic Dipole per cell (Ry a.u.) 115.17355251966487
 
     Expectation value of exp(iGx): (9.8657825022072293E-2,3.26112136803782154E-4),  1.
     Electronic Dipole per cell (Ry a.u.) 1.51477017875528992E-2
     Ionic Dipole per cell (Ry a.u.) 115.17355251966487
 
     Expectation value of exp(iGx): (0.34613097354253641,5.67483546111905296E-2),  1.
     Electronic Dipole per cell (Ry a.u.) 0.74469606539752475
     Ionic Dipole per cell (Ry a.u.) 115.17355251966487
Electronic Dipole on Cartesian axes
 1,  1.69134558613413706E-2
 2,  1.51477017875528992E-2
 3,  0.74469606539752475
Ionic Dipole on Cartesian axes
 1,  115.17355251966487
 2,  115.17355251966487
 3,  115.17355251966487

     total cpu time spent up to now is       37.9 secs

     total energy              =     -63.06630588 Ry
     Harris-Foulkes estimate   =     -63.00080316 Ry
     estimated scf accuracy    <       0.24742939 Ry

     iteration #  2     ecut=    20.00 Ry     beta=0.50
     Davidson diagonalization with overlap
     ethr =  7.73E-04,  avg # of iterations =  1.0
     Davidson diagonalization with overlap
     ethr =  7.73E-04,  avg # of iterations =  1.0
     Davidson diagonalization with overlap
     ethr =  7.73E-04,  avg # of iterations =  1.0
 
     Expectation value of exp(iGx): (9.35394937249473257E-2,1.85006688341513844E-4),  1.
     Electronic Dipole per cell (Ry a.u.) 9.06368390396494229E-3
     Ionic Dipole per cell (Ry a.u.) 115.17355251966487
 
     Expectation value of exp(iGx): (9.35734083676477701E-2,9.14980304131924016E-5),  1.
     Electronic Dipole per cell (Ry a.u.) 4.48097025999358647E-3
     Ionic Dipole per cell (Ry a.u.) 115.17355251966487
 
     Expectation value of exp(iGx): (0.33769162646992051,6.23763689866535312E-2),  1.
     Electronic Dipole per cell (Ry a.u.) 0.83703760316317244
     Ionic Dipole per cell (Ry a.u.) 115.17355251966487
Electronic Dipole on Cartesian axes
 1,  9.06368390396494229E-3
 2,  4.48097025999358647E-3
 3,  0.83703760316317244
Ionic Dipole on Cartesian axes
 1,  115.17355251966487
 2,  115.17355251966487
 3,  115.17355251966487

     total cpu time spent up to now is       53.6 secs

     total energy              =     -63.06660372 Ry
     Harris-Foulkes estimate   =     -62.95694189 Ry
     estimated scf accuracy    <       0.04210325 Ry

     iteration #  3     ecut=    20.00 Ry     beta=0.50
     Davidson diagonalization with overlap
     ethr =  1.32E-04,  avg # of iterations =  1.0
     Davidson diagonalization with overlap
     ethr =  1.32E-04,  avg # of iterations =  1.0
     Davidson diagonalization with overlap
     ethr =  1.32E-04,  avg # of iterations =  1.0
 
     Expectation value of exp(iGx): (9.00488302917998029E-2,9.36952736540981916E-5),  1.
     Electronic Dipole per cell (Ry a.u.) 4.76817684664376622E-3
     Ionic Dipole per cell (Ry a.u.) 115.17355251966487
 
     Expectation value of exp(iGx): (9.00544811489659841E-2,4.53531013034605857E-5),  1.
     Electronic Dipole per cell (Ry a.u.) 2.30788693216062634E-3
     Ionic Dipole per cell (Ry a.u.) 115.17355251966487
 
     Expectation value of exp(iGx): (0.33084330306239124,6.46230951769843215E-2),  1.
     Electronic Dipole per cell (Ry a.u.) 0.88398380213651229
     Ionic Dipole per cell (Ry a.u.) 115.17355251966487
Electronic Dipole on Cartesian axes
 1,  4.76817684664376622E-3
 2,  2.30788693216062634E-3
 3,  0.88398380213651229
Ionic Dipole on Cartesian axes
 1,  115.17355251966487
 2,  115.17355251966487
 3,  115.17355251966487

     total cpu time spent up to now is       69.4 secs

     total energy              =     -63.06900239 Ry
     Harris-Foulkes estimate   =     -62.95292694 Ry
     estimated scf accuracy    <       0.00068129 Ry

     iteration #  4     ecut=    20.00 Ry     beta=0.50
     Davidson diagonalization with overlap
     ethr =  2.13E-06,  avg # of iterations =  3.3
     Davidson diagonalization with overlap
     ethr =  2.13E-06,  avg # of iterations =  1.0
     Davidson diagonalization with overlap
     ethr =  2.13E-06,  avg # of iterations =  1.0
 
     Expectation value of exp(iGx): (8.96640327642950208E-2,2.06967765302887095E-5),  1.
     Electronic Dipole per cell (Ry a.u.) 1.05778483864789048E-3
     Ionic Dipole per cell (Ry a.u.) 115.17355251966487
 
     Expectation value of exp(iGx): (8.96698434577101328E-2,-7.6771565821083425E-6),  1.
     Electronic Dipole per cell (Ry a.u.) -3.92343885750036164E-4
     Ionic Dipole per cell (Ry a.u.) 115.17355251966487
 
     Expectation value of exp(iGx): (0.32933115366128751,6.71384228893144863E-2),  1.
     Electronic Dipole per cell (Ry a.u.) 0.92159572661225875
     Ionic Dipole per cell (Ry a.u.) 115.17355251966487
Electronic Dipole on Cartesian axes
 1,  1.05778483864789048E-3
 2,  -3.92343885750036164E-4
 3,  0.92159572661225875
Ionic Dipole on Cartesian axes
 1,  115.17355251966487
 2,  115.17355251966487
 3,  115.17355251966487

     total cpu time spent up to now is       86.1 secs

     total energy              =     -63.06909616 Ry
     Harris-Foulkes estimate   =     -62.95300102 Ry
     estimated scf accuracy    <       0.00000285 Ry

     iteration #  5     ecut=    20.00 Ry     beta=0.50
     Davidson diagonalization with overlap
     ethr =  8.91E-09,  avg # of iterations =  4.2
     Davidson diagonalization with overlap
     ethr =  8.91E-09,  avg # of iterations =  1.1
     Davidson diagonalization with overlap
     ethr =  8.91E-09,  avg # of iterations =  1.0
 
     Expectation value of exp(iGx): (8.96298603836731128E-2,-4.61966908677027671E-7),  1.
     Electronic Dipole per cell (Ry a.u.) -2.36195190870387527E-5
     Ionic Dipole per cell (Ry a.u.) 115.17355251966487
 
     Expectation value of exp(iGx): (8.96300121371100128E-2,-5.47842420305476296E-7),  1.
     Electronic Dipole per cell (Ry a.u.) -2.80101287593258955E-5
     Ionic Dipole per cell (Ry a.u.) 115.17355251966487
 
     Expectation value of exp(iGx): (0.32911381109685883,6.74951482193694441E-2),  1.
     Electronic Dipole per cell (Ry a.u.) 0.92695565846823869
     Ionic Dipole per cell (Ry a.u.) 115.17355251966487
Electronic Dipole on Cartesian axes
 1,  -2.36195190870387527E-5
 2,  -2.80101287593258955E-5
 3,  0.92695565846823869
Ionic Dipole on Cartesian axes
 1,  115.17355251966487
 2,  115.17355251966487
 3,  115.17355251966487

     total cpu time spent up to now is      104.7 secs

     total energy              =     -63.06909801 Ry
     Harris-Foulkes estimate   =     -62.95299714 Ry
     estimated scf accuracy    <       0.00000040 Ry

     iteration #  6     ecut=    20.00 Ry     beta=0.50
     Davidson diagonalization with overlap
     ethr =  1.26E-09,  avg # of iterations =  2.1
     Davidson diagonalization with overlap
     ethr =  1.26E-09,  avg # of iterations =  1.0
     Davidson diagonalization with overlap
     ethr =  1.26E-09,  avg # of iterations =  1.0
 
     Expectation value of exp(iGx): (8.96426670742735271E-2,-1.18604708714902963E-7),  1.
     Electronic Dipole per cell (Ry a.u.) -6.06317446571962971E-6
     Ionic Dipole per cell (Ry a.u.) 115.17355251966487
 
     Expectation value of exp(iGx): (8.96427388666772157E-2,1.56937468146626328E-7),  1.
     Electronic Dipole per cell (Ry a.u.) 8.02277159000958094E-6
     Ionic Dipole per cell (Ry a.u.) 115.17355251966487
 
     Expectation value of exp(iGx): (0.329143133311457,6.7464609532121661E-2),  1.
     Electronic Dipole per cell (Ry a.u.) 0.92646727806983054
     Ionic Dipole per cell (Ry a.u.) 115.17355251966487
Electronic Dipole on Cartesian axes
 1,  -6.06317446571962971E-6
 2,  8.02277159000958094E-6
 3,  0.92646727806983054
Ionic Dipole on Cartesian axes
 1,  115.17355251966487
 2,  115.17355251966487
 3,  115.17355251966487

     total cpu time spent up to now is      121.4 secs

     total energy              =     -63.06909803 Ry
     Harris-Foulkes estimate   =     -62.95299795 Ry
     estimated scf accuracy    <       0.00000005 Ry

     iteration #  7     ecut=    20.00 Ry     beta=0.50
     Davidson diagonalization with overlap
     ethr =  1.57E-10,  avg # of iterations =  2.1
     Davidson diagonalization with overlap
     ethr =  1.57E-10,  avg # of iterations =  1.0
     Davidson diagonalization with overlap
     ethr =  1.57E-10,  avg # of iterations =  1.0
 
     Expectation value of exp(iGx): (8.9645421288119545E-2,-1.96129535438792717E-7),  1.
     Electronic Dipole per cell (Ry a.u.) -1.00260020772773017E-5
     Ionic Dipole per cell (Ry a.u.) 115.17355251966487
 
     Expectation value of exp(iGx): (8.96454693372794043E-2,3.40840980200342755E-8),  1.
     Electronic Dipole per cell (Ry a.u.) 1.74235386640914802E-6
     Ionic Dipole per cell (Ry a.u.) 115.17355251966487
 
     Expectation value of exp(iGx): (0.32914971753305255,6.7461148504031121E-2),  1.
     Electronic Dipole per cell (Ry a.u.) 0.92640300238397255
     Ionic Dipole per cell (Ry a.u.) 115.17355251966487
Electronic Dipole on Cartesian axes
 1,  -1.00260020772773017E-5
 2,  1.74235386640914802E-6
 3,  0.92640300238397255
Ionic Dipole on Cartesian axes
 1,  115.17355251966487
 2,  115.17355251966487
 3,  115.17355251966487

     total cpu time spent up to now is      138.0 secs

     End of self-consistent calculation

          k = 0.0000 0.0000 0.0000 (  1575 PWs)   bands (ev):

    -5.5816  -1.3524  -1.3524  -1.3523  -1.3523  -1.3523  -1.3523   3.5784
     3.5784   3.5796   3.5796   3.5796   3.5796   6.4873   6.4889   6.4889

          k = 0.0000 0.0000 0.1429 (  1599 PWs)   bands (ev):

    -5.4905  -2.4220  -1.3216  -1.3216  -1.3216  -1.3216  -0.1753   3.3335
     3.3335   3.3336   3.3336   3.6603   3.6603   5.9839   6.1476   6.1476

          k = 0.0000 0.0000 0.2857 (  1582 PWs)   bands (ev):

    -5.2182  -3.3591  -1.2481  -1.2481  -1.2481  -1.2481   1.0776   2.8850
     2.8850   2.8850   2.8850   3.9043   3.9044   4.9085   5.4912   5.4913

          k = 0.0000 0.0000 0.4286 (  1602 PWs)   bands (ev):

    -4.7680  -4.1454  -1.1842  -1.1842  -1.1841  -1.1841   2.3695   2.5820
     2.5820   2.5821   2.5821   3.6630   4.3031   4.3031   4.8436   4.8437

          k = 0.0000 0.0000 0.5714 (  1602 PWs)   bands (ev):

    -4.7680  -4.1454  -1.1842  -1.1842  -1.1841  -1.1841   2.3695   2.5820
     2.5820   2.5821   2.5821   3.6630   4.3031   4.3031   4.8436   4.8437

          k = 0.0000 0.0000 0.7143 (  1582 PWs)   bands (ev):

    -5.2182  -3.3591  -1.2481  -1.2481  -1.2481  -1.2481   1.0776   2.8850
     2.8850   2.8850   2.8850   3.9043   3.9044   4.9085   5.4912   5.4913

          k = 0.0000 0.0000 0.8571 (  1599 PWs)   bands (ev):

    -5.4905  -2.4220  -1.3216  -1.3216  -1.3216  -1.3216  -0.1753   3.3335
     3.3335   3.3336   3.3336   3.6603   3.6603   5.9839   6.1476   6.1476

          k = 0.0000 0.3333 0.0000 (  1594 PWs)   bands (ev):

    -5.0878  -3.6386  -1.2226  -1.2226  -1.2225  -1.2225   1.5056   2.7566
     2.7567   2.7567   2.7567   4.0209   4.0221   4.5033   5.2673   5.2692

          k = 0.0000 0.3333 0.1429 (  1586 PWs)   bands (ev):

    -4.9998  -3.5638  -2.1372  -1.6222  -0.8462  -0.3010   1.3720   2.1957
     2.6303   3.1657   3.5246   3.6882   3.9253   4.0207   4.9214   5.6975

          k = 0.0000 0.3333 0.2857 (  1602 PWs)   bands (ev):

    -4.7375  -3.3445  -2.9833  -2.0767  -0.4418   0.5745   1.0087   1.9682
     2.7516   3.0507   3.0709   3.8603   4.0920   4.2025   4.2507   5.9697

          k = 0.0000 0.3333 0.4286 (  1598 PWs)   bands (ev):

    -4.3062  -3.7158  -2.9976  -2.5566   0.0181   0.5215   1.4021   2.0789
     2.2233   2.4673   3.0860   3.6012   4.2731   4.4205   4.7474   5.5854

          k = 0.0000 0.3333 0.5714 (  1598 PWs)   bands (ev):

    -4.3062  -3.7158  -2.9976  -2.5566   0.0181   0.5215   1.4021   2.0789
     2.2233   2.4673   3.0860   3.6013   4.2731   4.4204   4.7474   5.5854

          k = 0.0000 0.3333 0.7143 (  1602 PWs)   bands (ev):

    -4.7375  -3.3445  -2.9833  -2.0767  -0.4418   0.5745   1.0088   1.9682
     2.7515   3.0506   3.0709   3.8604   4.0920   4.2025   4.2507   5.9697

          k = 0.0000 0.3333 0.8571 (  1586 PWs)   bands (ev):

    -4.9998  -3.5638  -2.1372  -1.6222  -0.8462  -0.3010   1.3720   2.1958
     2.6303   3.1657   3.5245   3.6882   3.9253   4.0207   4.9214   5.6974

          k = 0.0000 0.6667 0.0000 (  1594 PWs)   bands (ev):

    -5.0878  -3.6386  -1.2226  -1.2226  -1.2225  -1.2225   1.5056   2.7566
     2.7567   2.7567   2.7567   4.0209   4.0221   4.5033   5.2673   5.2692

          k = 0.0000 0.6667 0.1429 (  1586 PWs)   bands (ev):

    -4.9998  -3.5638  -2.1372  -1.6222  -0.8462  -0.3010   1.3720   2.1958
     2.6303   3.1657   3.5245   3.6882   3.9253   4.0207   4.9214   5.6974

          k = 0.0000 0.6667 0.2857 (  1602 PWs)   bands (ev):

    -4.7375  -3.3445  -2.9833  -2.0767  -0.4418   0.5745   1.0088   1.9682
     2.7515   3.0506   3.0709   3.8604   4.0920   4.2025   4.2507   5.9697

          k = 0.0000 0.6667 0.4286 (  1598 PWs)   bands (ev):

    -4.3062  -3.7158  -2.9976  -2.5566   0.0181   0.5215   1.4021   2.0789
     2.2233   2.4673   3.0860   3.6013   4.2731   4.4204   4.7474   5.5854

          k = 0.0000 0.6667 0.5714 (  1598 PWs)   bands (ev):

    -4.3062  -3.7158  -2.9976  -2.5566   0.0181   0.5215   1.4021   2.0789
     2.2233   2.4673   3.0860   3.6012   4.2731   4.4205   4.7474   5.5854

          k = 0.0000 0.6667 0.7143 (  1602 PWs)   bands (ev):

    -4.7375  -3.3445  -2.9833  -2.0767  -0.4418   0.5745   1.0087   1.9682
     2.7516   3.0507   3.0709   3.8603   4.0920   4.2025   4.2507   5.9697

          k = 0.0000 0.6667 0.8571 (  1586 PWs)   bands (ev):

    -4.9998  -3.5638  -2.1372  -1.6222  -0.8462  -0.3010   1.3720   2.1957
     2.6303   3.1657   3.5246   3.6882   3.9253   4.0207   4.9214   5.6975

          k = 0.3333 0.0000 0.0000 (  1594 PWs)   bands (ev):

    -5.0878  -3.6386  -1.2226  -1.2226  -1.2225  -1.2225   1.5056   2.7566
     2.7567   2.7567   2.7567   4.0209   4.0221   4.5033   5.2673   5.2692

          k = 0.3333 0.0000 0.1429 (  1586 PWs)   bands (ev):

    -4.9998  -3.5638  -2.1372  -1.6222  -0.8462  -0.3010   1.3720   2.1957
     2.6303   3.1657   3.5246   3.6882   3.9253   4.0207   4.9214   5.6975

          k = 0.3333 0.0000 0.2857 (  1602 PWs)   bands (ev):

    -4.7375  -3.3445  -2.9833  -2.0767  -0.4418   0.5745   1.0087   1.9682
     2.7516   3.0507   3.0709   3.8603   4.0920   4.2025   4.2507   5.9697

          k = 0.3333 0.0000 0.4286 (  1598 PWs)   bands (ev):

    -4.3062  -3.7158  -2.9976  -2.5566   0.0181   0.5215   1.4021   2.0789
     2.2233   2.4673   3.0860   3.6012   4.2731   4.4205   4.7474   5.5854

          k = 0.3333 0.0000 0.5714 (  1598 PWs)   bands (ev):

    -4.3062  -3.7158  -2.9976  -2.5566   0.0181   0.5215   1.4021   2.0789
     2.2233   2.4673   3.0860   3.6013   4.2731   4.4204   4.7474   5.5854

          k = 0.3333 0.0000 0.7143 (  1602 PWs)   bands (ev):

    -4.7375  -3.3445  -2.9833  -2.0767  -0.4418   0.5745   1.0088   1.9682
     2.7515   3.0506   3.0709   3.8604   4.0920   4.2025   4.2507   5.9697

          k = 0.3333 0.0000 0.8571 (  1586 PWs)   bands (ev):

    -4.9998  -3.5638  -2.1372  -1.6222  -0.8462  -0.3010   1.3720   2.1958
     2.6303   3.1657   3.5245   3.6882   3.9253   4.0207   4.9214   5.6974

          k = 0.3333 0.3333 0.0000 (  1602 PWs)   bands (ev):

    -4.6122  -3.2418  -3.2418  -2.2369  -0.2949   0.8540   0.8540   1.9698
     2.7853   2.8409   2.8409   4.0238   4.1432   4.1432   4.3342   5.9167

          k = 0.3333 0.3333 0.1429 (  1596 PWs)   bands (ev):

    -4.5302  -3.1935  -3.1935  -2.4033  -0.3445   0.5321   0.5321   2.2091
     2.3851   3.1357   3.1357   4.2717   4.2717   4.3997   4.6292   5.8277

          k = 0.3333 0.3333 0.2857 (  1598 PWs)   bands (ev):

    -4.2880  -3.0721  -3.0721  -2.8472  -0.2600  -0.0171  -0.0171   1.3736
     3.3211   3.5700   3.5701   4.5843   4.5843   4.5896   5.3752   5.5797

          k = 0.3333 0.3333 0.4286 (  1592 PWs)   bands (ev):

    -3.8991  -3.3950  -2.9572  -2.9571  -0.3885  -0.3885   0.0830   0.6428
     3.8273   3.8273   4.4023   4.7883   4.7883   4.8826   5.2359   5.2934

          k = 0.3333 0.3333 0.5714 (  1592 PWs)   bands (ev):

    -3.8991  -3.3950  -2.9572  -2.9571  -0.3885  -0.3885   0.0830   0.6428
     3.8273   3.8273   4.4023   4.7883   4.7883   4.8826   5.2359   5.2934

          k = 0.3333 0.3333 0.7143 (  1598 PWs)   bands (ev):

    -4.2880  -3.0721  -3.0721  -2.8472  -0.2600  -0.0171  -0.0171   1.3736
     3.3211   3.5701   3.5701   4.5843   4.5843   4.5896   5.3752   5.5797

          k = 0.3333 0.3333 0.8571 (  1596 PWs)   bands (ev):

    -4.5302  -3.1935  -3.1935  -2.4033  -0.3444   0.5321   0.5322   2.2091
     2.3851   3.1357   3.1357   4.2717   4.2717   4.3997   4.6292   5.8277

          k = 0.3333 0.6667 0.0000 (  1602 PWs)   bands (ev):

    -4.6122  -3.2418  -3.2418  -2.2369  -0.2950   0.8541   0.8541   1.9698
     2.7852   2.8409   2.8409   4.0238   4.1432   4.1432   4.3342   5.9167

          k = 0.3333 0.6667 0.1429 (  1596 PWs)   bands (ev):

    -4.5302  -3.1935  -3.1935  -2.4033  -0.3445   0.5322   0.5322   2.2090
     2.3851   3.1357   3.1357   4.2717   4.2717   4.3996   4.6292   5.8277

          k = 0.3333 0.6667 0.2857 (  1598 PWs)   bands (ev):

    -4.2880  -3.0721  -3.0721  -2.8472  -0.2600  -0.0171  -0.0170   1.3736
     3.3211   3.5700   3.5701   4.5843   4.5843   4.5896   5.3752   5.5797

          k = 0.3333 0.6667 0.4286 (  1592 PWs)   bands (ev):

    -3.8991  -3.3950  -2.9572  -2.9572  -0.3885  -0.3885   0.0829   0.6428
     3.8273   3.8273   4.4023   4.7883   4.7883   4.8825   5.2359   5.2934

          k = 0.3333 0.6667 0.5714 (  1592 PWs)   bands (ev):

    -3.8991  -3.3950  -2.9572  -2.9572  -0.3885  -0.3885   0.0830   0.6428
     3.8273   3.8273   4.4023   4.7883   4.7883   4.8825   5.2359   5.2934

          k = 0.3333 0.6667 0.7143 (  1598 PWs)   bands (ev):

    -4.2880  -3.0721  -3.0721  -2.8472  -0.2600  -0.0171  -0.0170   1.3736
     3.3211   3.5700   3.5701   4.5843   4.5843   4.5896   5.3752   5.5797

          k = 0.3333 0.6667 0.8571 (  1596 PWs)   bands (ev):

    -4.5302  -3.1935  -3.1935  -2.4033  -0.3445   0.5322   0.5322   2.2090
     2.3851   3.1357   3.1357   4.2717   4.2717   4.3996   4.6292   5.8277

          k = 0.6667 0.0000 0.0000 (  1594 PWs)   bands (ev):

    -5.0878  -3.6386  -1.2226  -1.2226  -1.2225  -1.2225   1.5056   2.7566
     2.7567   2.7567   2.7567   4.0209   4.0221   4.5033   5.2673   5.2692

          k = 0.6667 0.0000 0.1429 (  1586 PWs)   bands (ev):

    -4.9998  -3.5638  -2.1372  -1.6222  -0.8462  -0.3010   1.3720   2.1958
     2.6303   3.1657   3.5245   3.6882   3.9253   4.0207   4.9214   5.6974

          k = 0.6667 0.0000 0.2857 (  1602 PWs)   bands (ev):

    -4.7375  -3.3445  -2.9833  -2.0767  -0.4418   0.5745   1.0088   1.9682
     2.7515   3.0506   3.0709   3.8604   4.0920   4.2025   4.2507   5.9697

          k = 0.6667 0.0000 0.4286 (  1598 PWs)   bands (ev):

    -4.3062  -3.7158  -2.9976  -2.5566   0.0181   0.5215   1.4021   2.0789
     2.2233   2.4673   3.0860   3.6013   4.2731   4.4204   4.7474   5.5854

          k = 0.6667 0.0000 0.5714 (  1598 PWs)   bands (ev):

    -4.3062  -3.7158  -2.9976  -2.5566   0.0181   0.5215   1.4021   2.0789
     2.2233   2.4673   3.0860   3.6012   4.2731   4.4205   4.7474   5.5854

          k = 0.6667 0.0000 0.7143 (  1602 PWs)   bands (ev):

    -4.7375  -3.3445  -2.9833  -2.0767  -0.4418   0.5745   1.0087   1.9682
     2.7516   3.0507   3.0709   3.8603   4.0920   4.2025   4.2507   5.9697

          k = 0.6667 0.0000 0.8571 (  1586 PWs)   bands (ev):

    -4.9998  -3.5638  -2.1372  -1.6222  -0.8462  -0.3010   1.3720   2.1957
     2.6303   3.1657   3.5246   3.6882   3.9253   4.0207   4.9214   5.6975

          k = 0.6667 0.3333 0.0000 (  1602 PWs)   bands (ev):

    -4.6122  -3.2418  -3.2418  -2.2369  -0.2950   0.8541   0.8541   1.9698
     2.7852   2.8409   2.8409   4.0238   4.1432   4.1432   4.3342   5.9167

          k = 0.6667 0.3333 0.1429 (  1596 PWs)   bands (ev):

    -4.5302  -3.1935  -3.1935  -2.4033  -0.3445   0.5322   0.5322   2.2090
     2.3851   3.1357   3.1357   4.2717   4.2717   4.3996   4.6292   5.8277

          k = 0.6667 0.3333 0.2857 (  1598 PWs)   bands (ev):

    -4.2880  -3.0721  -3.0721  -2.8472  -0.2600  -0.0171  -0.0170   1.3736
     3.3211   3.5700   3.5701   4.5843   4.5843   4.5896   5.3752   5.5797

          k = 0.6667 0.3333 0.4286 (  1592 PWs)   bands (ev):

    -3.8991  -3.3950  -2.9572  -2.9572  -0.3885  -0.3885   0.0830   0.6428
     3.8273   3.8273   4.4023   4.7883   4.7883   4.8825   5.2359   5.2934

          k = 0.6667 0.3333 0.5714 (  1592 PWs)   bands (ev):

    -3.8991  -3.3950  -2.9572  -2.9572  -0.3885  -0.3885   0.0829   0.6428
     3.8273   3.8273   4.4023   4.7883   4.7883   4.8825   5.2359   5.2934

          k = 0.6667 0.3333 0.7143 (  1598 PWs)   bands (ev):

    -4.2880  -3.0721  -3.0721  -2.8472  -0.2600  -0.0171  -0.0170   1.3736
     3.3211   3.5700   3.5701   4.5843   4.5843   4.5896   5.3752   5.5797

          k = 0.6667 0.3333 0.8571 (  1596 PWs)   bands (ev):

    -4.5302  -3.1935  -3.1935  -2.4033  -0.3445   0.5322   0.5322   2.2090
     2.3851   3.1357   3.1357   4.2717   4.2717   4.3996   4.6292   5.8277

          k = 0.6667 0.6667 0.0000 (  1602 PWs)   bands (ev):

    -4.6122  -3.2418  -3.2418  -2.2369  -0.2949   0.8540   0.8540   1.9698
     2.7853   2.8409   2.8409   4.0238   4.1432   4.1432   4.3342   5.9167

          k = 0.6667 0.6667 0.1429 (  1596 PWs)   bands (ev):

    -4.5302  -3.1935  -3.1935  -2.4033  -0.3444   0.5321   0.5322   2.2091
     2.3851   3.1357   3.1357   4.2717   4.2717   4.3997   4.6292   5.8277

          k = 0.6667 0.6667 0.2857 (  1598 PWs)   bands (ev):

    -4.2880  -3.0721  -3.0721  -2.8472  -0.2600  -0.0171  -0.0171   1.3736
     3.3211   3.5701   3.5701   4.5843   4.5843   4.5896   5.3752   5.5797

          k = 0.6667 0.6667 0.4286 (  1592 PWs)   bands (ev):

    -3.8991  -3.3950  -2.9572  -2.9571  -0.3885  -0.3885   0.0830   0.6428
     3.8273   3.8273   4.4023   4.7883   4.7883   4.8826   5.2359   5.2934

          k = 0.6667 0.6667 0.5714 (  1592 PWs)   bands (ev):

    -3.8991  -3.3950  -2.9572  -2.9571  -0.3885  -0.3885   0.0830   0.6428
     3.8273   3.8273   4.4023   4.7883   4.7883   4.8826   5.2359   5.2934

          k = 0.6667 0.6667 0.7143 (  1598 PWs)   bands (ev):

    -4.2880  -3.0721  -3.0721  -2.8472  -0.2600  -0.0171  -0.0171   1.3736
     3.3211   3.5700   3.5701   4.5843   4.5843   4.5896   5.3752   5.5797

          k = 0.6667 0.6667 0.8571 (  1596 PWs)   bands (ev):

    -4.5302  -3.1935  -3.1935  -2.4033  -0.3445   0.5321   0.5321   2.2091
     2.3851   3.1357   3.1357   4.2717   4.2717   4.3997   4.6292   5.8277

!    total energy              =     -63.06909807 Ry
     Harris-Foulkes estimate   =     -62.95299811 Ry
     estimated scf accuracy    <          4.4E-09 Ry

     The total energy is the sum of the following terms:

     one-electron contribution =      19.83195819 Ry
     hartree contribution      =       4.30330938 Ry
     xc contribution           =     -19.35642348 Ry
     ewald contribution        =     -67.73184220 Ry

     convergence has been achieved in   7 iterations

     Writing output data file silicon.save
 
     init_run     :      0.52s CPU      0.77s WALL (       1 calls)
     electrons    :     87.95s CPU    137.05s WALL (       1 calls)

     Called by init_run:
     wfcinit      :      0.49s CPU      0.67s WALL (       1 calls)
     potinit      :      0.01s CPU      0.01s WALL (       1 calls)

     Called by electrons:
     c_bands      :     76.08s CPU     93.77s WALL (      24 calls)
     sum_band     :      1.12s CPU      2.76s WALL (       8 calls)
     v_of_rho     :      0.02s CPU      0.03s WALL (       8 calls)
     mix_rho      :      0.00s CPU      0.01s WALL (       8 calls)

     Called by c_bands:
     init_us_2    :      0.01s CPU      0.11s WALL (    2079 calls)
     cegterg      :     74.44s CPU     76.55s WALL (    1512 calls)

     Called by *egterg:
     h_psi        :     56.02s CPU     62.66s WALL (    4093 calls)
     g_psi        :      0.00s CPU      0.03s WALL (    2518 calls)
     cdiaghg      :     17.23s CPU     11.57s WALL (    3715 calls)

     Called by h_psi:
     add_vuspsi   :      0.22s CPU      0.24s WALL (    4093 calls)

     General routines
     calbec       :      0.48s CPU      0.52s WALL (    4093 calls)
     fft          :      0.02s CPU      0.02s WALL (      89 calls)
     fftw         :     11.13s CPU     18.51s WALL (  122518 calls)
     davcio       :      4.12s CPU     46.53s WALL (   16821 calls)
 
     Parallel routines
     fft_scatter  :      7.32s CPU     11.17s WALL (  122607 calls)
     EXX routines
 
     PWSCF        :  1m28.76s CPU     2m18.69s WALL

 
   This run was terminated on:  16: 9:49   6Dec2012            

=------------------------------------------------------------------------------=
   JOB DONE.
=------------------------------------------------------------------------------=
Application 131464 resources: utime ~2957s, stime ~156s
