
     Program PWSCF v.5.0        starts on  6Dec2012 at 16: 6:51 

     This program is part of the open-source Quantum ESPRESSO suite
     for quantum simulation of materials; please cite
         "P. Giannozzi et al., J. Phys.:Condens. Matter 21 395502 (2009);
          URL http://www.quantum-espresso.org", 
     in publications or presentations arising from this work. More details at
     http://www.quantum-espresso.org/quote.php

     Parallel version (MPI & OpenMP), running on    32 processor cores
     Number of MPI processes:              32
     Threads/MPI process:                  1
     R & G space division:  proc/pool =   32

     Current dimensions of program PWSCF are:
     Max number of different atomic species (ntypx) = 10
     Max number of k-points (npk) =  40000
     Max angular momentum in pseudopotentials (lmaxx) =  3
     Waiting for input...
     Reading input from standard input

     Subspace diagonalization in iterative solution of the eigenvalue problem:
     scalapack distributed-memory algorithm (size of sub-group:  4*  4 procs)

 EFIELD CART 3*0.
 EFIELD CRY 3*0.
 EFIELD CART 3*0.
 EFIELD CRY 3*0.
 BG1 1.,  2*0.
 BG1 1.,  2*0.
 BG1 1.,  2*0.
 BG1 1.,  2*0.
 EFIELD CART 3*0.
 EFIELD CART 3*0.
 EFIELD CRY 3*0.
 nx_el1 1,  22,  43,  2,  23,  44,  3,  24,  45,  4,  25,  46,  5,  26,  47,  6,  27,  48,  7,  28,  49,  8,  29,  50,  9,  30,  51,
 EFIELD CRY 3*0.
 nx_el1 1,  22,  43,  2,  23,  44,  3,  24,  45,  4,  25,  46,  5,  26,  47,  6,  27,  48,  7,  28,  49,  8,  29,  50,  9,  30,  51,
 EFIELD CART 3*0.
 EFIELD CART 3*0.
 BG1 1.,  2*0.
 EFIELD CRY 3*0.
 BG1 1.,  2*0.
 BG1 1.,  2*0.
 EFIELD CRY 3*0.
 10,  31,  52,  11,  32,  53,  12,  33,  54,  13,  34,  55,  14,  35,  56,  15,  36,  57,  16,  37,  58,  17,  38,  59,  18,  39,  60
 EFIELD CART 3*0.
 EFIELD CART 3*0.
 EFIELD CART 3*0.
 EFIELD CART 3*0.
 EFIELD CART 3*0.
 EFIELD CART 3*0.
 EFIELD CRY 3*0.
 EFIELD CART 3*0.
 EFIELD CART 3*0.
 EFIELD CART 3*0.
 EFIELD CART 3*0.
 EFIELD CART 3*0.
 EFIELD CART 3*0.
 nx_el1 1,  22,  43,  2,  23,  44,  3,  24,  45,  4,  25,  46,  5,  26,  47,  6,  27,  48,  7,  28,  49,  8,  29,  50,  9,  30,  51,
 EFIELD CART 3*0.
 10,  31,  52,  11,  32,  53,  12,  33,  54,  13,  34,  55,  14,  35,  56,  15,  36,  57,  16,  37,  58,  17,  38,  59,  18,  39,  60
 EFIELD CART 3*0.
 EFIELD CART 3*0.
 EFIELD CRY 3*0.
 EFIELD CRY 3*0.
 EFIELD CART 3*0.
 EFIELD CART 3*0.
 EFIELD CART 3*0.
 EFIELD CART 3*0.
 EFIELD CRY 3*0.
 EFIELD CART 3*0.
 EFIELD CRY 3*0.
 EFIELD CRY 3*0.
 EFIELD CRY 3*0.
 EFIELD CART 3*0.
 EFIELD CART 3*0.
 EFIELD CRY 3*0.
 EFIELD CRY 3*0.
 EFIELD CRY 3*0.
 EFIELD CART 3*0.
 BG1 1.,  2*0.
 EFIELD CRY 3*0.
 BG1 1.,  2*0.
 EFIELD CRY 3*0.
 EFIELD CRY 3*0.
 BG1 1.,  2*0.
 BG1 1.,  2*0.
 BG1 1.,  2*0.
 BG1 1.,  2*0.
 EFIELD CART 3*0.
 EFIELD CRY 3*0.
 BG1 1.,  2*0.
 EFIELD CRY 3*0.
 BG1 1.,  2*0.
 10,  31,  52,  11,  32,  53,  12,  33,  54,  13,  34,  55,  14,  35,  56,  15,  36,  57,  16,  37,  58,  17,  38,  59,  18,  39,  60
 BG1 1.,  2*0.
 19,  40,  61,  20,  41,  62,  21,  42,  63
 BG1 1.,  2*0.
 BG1 1.,  2*0.
 EFIELD CRY 3*0.
 19,  40,  61,  20,  41,  62,  21,  42,  63
 BG1 1.,  2*0.
 EFIELD CRY 3*0.
     Found symmetry operation: I + ( -0.5000 -0.5000  0.0000)
 EFIELD CRY 3*0.
 BG1 1.,  2*0.
 EFIELD CRY 3*0.
 nx_el1 1,  22,  43,  2,  23,  44,  3,  24,  45,  4,  25,  46,  5,  26,  47,  6,  27,  48,  7,  28,  49,  8,  29,  50,  9,  30,  51,
 BG1 1.,  2*0.
 EFIELD CART 3*0.
 nx_el1 1,  22,  43,  2,  23,  44,  3,  24,  45,  4,  25,  46,  5,  26,  47,  6,  27,  48,  7,  28,  49,  8,  29,  50,  9,  30,  51,
 BG1 1.,  2*0.
 nx_el1 1,  22,  43,  2,  23,  44,  3,  24,  45,  4,  25,  46,  5,  26,  47,  6,  27,  48,  7,  28,  49,  8,  29,  50,  9,  30,  51,
 BG1 1.,  2*0.
 19,  40,  61,  20,  41,  62,  21,  42,  63
 EFIELD CRY 3*0.
 BG1 1.,  2*0.
 BG1 1.,  2*0.
 nx_el1 1,  22,  43,  2,  23,  44,  3,  24,  45,  4,  25,  46,  5,  26,  47,  6,  27,  48,  7,  28,  49,  8,  29,  50,  9,  30,  51,
 BG1 1.,  2*0.
 BG1 1.,  2*0.
 EFIELD CRY 3*0.
 EFIELD CRY 3*0.
 BG1 1.,  2*0.
 BG1 1.,  2*0.
 BG1 1.,  2*0.
 BG1 1.,  2*0.
 BG1 1.,  2*0.
 EFIELD CRY 3*0.
 nx_el1 1,  22,  43,  2,  23,  44,  3,  24,  45,  4,  25,  46,  5,  26,  47,  6,  27,  48,  7,  28,  49,  8,  29,  50,  9,  30,  51,
 EFIELD CRY 3*0.
 nx_el1 1,  22,  43,  2,  23,  44,  3,  24,  45,  4,  25,  46,  5,  26,  47,  6,  27,  48,  7,  28,  49,  8,  29,  50,  9,  30,  51,
 BG1 1.,  2*0.
 10,  31,  52,  11,  32,  53,  12,  33,  54,  13,  34,  55,  14,  35,  56,  15,  36,  57,  16,  37,  58,  17,  38,  59,  18,  39,  60
 10,  31,  52,  11,  32,  53,  12,  33,  54,  13,  34,  55,  14,  35,  56,  15,  36,  57,  16,  37,  58,  17,  38,  59,  18,  39,  60
 BG1 1.,  2*0.
 10,  31,  52,  11,  32,  53,  12,  33,  54,  13,  34,  55,  14,  35,  56,  15,  36,  57,  16,  37,  58,  17,  38,  59,  18,  39,  60
 BG1 1.,  2*0.
 19,  40,  61,  20,  41,  62,  21,  42,  63
 nx_el1 1,  22,  43,  2,  23,  44,  3,  24,  45,  4,  25,  46,  5,  26,  47,  6,  27,  48,  7,  28,  49,  8,  29,  50,  9,  30,  51,
 BG1 1.,  2*0.
 BG1 1.,  2*0.
 BG1 1.,  2*0.
 nx_el1 1,  22,  43,  2,  23,  44,  3,  24,  45,  4,  25,  46,  5,  26,  47,  6,  27,  48,  7,  28,  49,  8,  29,  50,  9,  30,  51,
 EFIELD CART 3*0.
 BG1 1.,  2*0.
 BG1 1.,  2*0.
 19,  40,  61,  20,  41,  62,  21,  42,  63
 EFIELD CRY 3*0.
 10,  31,  52,  11,  32,  53,  12,  33,  54,  13,  34,  55,  14,  35,  56,  15,  36,  57,  16,  37,  58,  17,  38,  59,  18,  39,  60
 BG1 1.,  2*0.
 BG1 1.,  2*0.
 nx_el1 1,  22,  43,  2,  23,  44,  3,  24,  45,  4,  25,  46,  5,  26,  47,  6,  27,  48,  7,  28,  49,  8,  29,  50,  9,  30,  51,
 BG1 1.,  2*0.
 10,  31,  52,  11,  32,  53,  12,  33,  54,  13,  34,  55,  14,  35,  56,  15,  36,  57,  16,  37,  58,  17,  38,  59,  18,  39,  60
 10,  31,  52,  11,  32,  53,  12,  33,  54,  13,  34,  55,  14,  35,  56,  15,  36,  57,  16,  37,  58,  17,  38,  59,  18,  39,  60
 BG1 1.,  2*0.
 10,  31,  52,  11,  32,  53,  12,  33,  54,  13,  34,  55,  14,  35,  56,  15,  36,  57,  16,  37,  58,  17,  38,  59,  18,  39,  60
 BG1 1.,  2*0.
 BG1 1.,  2*0.
 BG1 1.,  2*0.
 BG1 1.,  2*0.
 nx_el1 1,  22,  43,  2,  23,  44,  3,  24,  45,  4,  25,  46,  5,  26,  47,  6,  27,  48,  7,  28,  49,  8,  29,  50,  9,  30,  51,
 19,  40,  61,  20,  41,  62,  21,  42,  63
 nx_el1 1,  22,  43,  2,  23,  44,  3,  24,  45,  4,  25,  46,  5,  26,  47,  6,  27,  48,  7,  28,  49,  8,  29,  50,  9,  30,  51,
 BG1 1.,  2*0.
 BG1 1.,  2*0.
 10,  31,  52,  11,  32,  53,  12,  33,  54,  13,  34,  55,  14,  35,  56,  15,  36,  57,  16,  37,  58,  17,  38,  59,  18,  39,  60
 19,  40,  61,  20,  41,  62,  21,  42,  63
 BG1 1.,  2*0.
 BG1 1.,  2*0.
 BG1 1.,  2*0.
 nx_el1 1,  22,  43,  2,  23,  44,  3,  24,  45,  4,  25,  46,  5,  26,  47,  6,  27,  48,  7,  28,  49,  8,  29,  50,  9,  30,  51,
 BG1 1.,  2*0.
 10,  31,  52,  11,  32,  53,  12,  33,  54,  13,  34,  55,  14,  35,  56,  15,  36,  57,  16,  37,  58,  17,  38,  59,  18,  39,  60
 nx_el1 1,  22,  43,  2,  23,  44,  3,  24,  45,  4,  25,  46,  5,  26,  47,  6,  27,  48,  7,  28,  49,  8,  29,  50,  9,  30,  51,
 BG1 1.,  2*0.
 10,  31,  52,  11,  32,  53,  12,  33,  54,  13,  34,  55,  14,  35,  56,  15,  36,  57,  16,  37,  58,  17,  38,  59,  18,  39,  60
 nx_el1 1,  22,  43,  2,  23,  44,  3,  24,  45,  4,  25,  46,  5,  26,  47,  6,  27,  48,  7,  28,  49,  8,  29,  50,  9,  30,  51,
 BG1 1.,  2*0.
 10,  31,  52,  11,  32,  53,  12,  33,  54,  13,  34,  55,  14,  35,  56,  15,  36,  57,  16,  37,  58,  17,  38,  59,  18,  39,  60
 10,  31,  52,  11,  32,  53,  12,  33,  54,  13,  34,  55,  14,  35,  56,  15,  36,  57,  16,  37,  58,  17,  38,  59,  18,  39,  60
 nx_el1 1,  22,  43,  2,  23,  44,  3,  24,  45,  4,  25,  46,  5,  26,  47,  6,  27,  48,  7,  28,  49,  8,  29,  50,  9,  30,  51,
 19,  40,  61,  20,  41,  62,  21,  42,  63
 19,  40,  61,  20,  41,  62,  21,  42,  63
 nx_el1 1,  22,  43,  2,  23,  44,  3,  24,  45,  4,  25,  46,  5,  26,  47,  6,  27,  48,  7,  28,  49,  8,  29,  50,  9,  30,  51,
 10,  31,  52,  11,  32,  53,  12,  33,  54,  13,  34,  55,  14,  35,  56,  15,  36,  57,  16,  37,  58,  17,  38,  59,  18,  39,  60
 19,  40,  61,  20,  41,  62,  21,  42,  63
 BG1 1.,  2*0.
 19,  40,  61,  20,  41,  62,  21,  42,  63
 19,  40,  61,  20,  41,  62,  21,  42,  63
 EFIELD CRY 3*0.
 nx_el1 1,  22,  43,  2,  23,  44,  3,  24,  45,  4,  25,  46,  5,  26,  47,  6,  27,  48,  7,  28,  49,  8,  29,  50,  9,  30,  51,
 BG1 1.,  2*0.
 19,  40,  61,  20,  41,  62,  21,  42,  63
 10,  31,  52,  11,  32,  53,  12,  33,  54,  13,  34,  55,  14,  35,  56,  15,  36,  57,  16,  37,  58,  17,  38,  59,  18,  39,  60
 BG1 1.,  2*0.
 10,  31,  52,  11,  32,  53,  12,  33,  54,  13,  34,  55,  14,  35,  56,  15,  36,  57,  16,  37,  58,  17,  38,  59,  18,  39,  60
 BG1 1.,  2*0.
 10,  31,  52,  11,  32,  53,  12,  33,  54,  13,  34,  55,  14,  35,  56,  15,  36,  57,  16,  37,  58,  17,  38,  59,  18,  39,  60
 nx_el1 1,  22,  43,  2,  23,  44,  3,  24,  45,  4,  25,  46,  5,  26,  47,  6,  27,  48,  7,  28,  49,  8,  29,  50,  9,  30,  51,
 nx_el1 1,  22,  43,  2,  23,  44,  3,  24,  45,  4,  25,  46,  5,  26,  47,  6,  27,  48,  7,  28,  49,  8,  29,  50,  9,  30,  51,
 nx_el1 1,  22,  43,  2,  23,  44,  3,  24,  45,  4,  25,  46,  5,  26,  47,  6,  27,  48,  7,  28,  49,  8,  29,  50,  9,  30,  51,
 19,  40,  61,  20,  41,  62,  21,  42,  63
 19,  40,  61,  20,  41,  62,  21,  42,  63
 nx_el1 1,  22,  43,  2,  23,  44,  3,  24,  45,  4,  25,  46,  5,  26,  47,  6,  27,  48,  7,  28,  49,  8,  29,  50,  9,  30,  51,
 10,  31,  52,  11,  32,  53,  12,  33,  54,  13,  34,  55,  14,  35,  56,  15,  36,  57,  16,  37,  58,  17,  38,  59,  18,  39,  60
 BG1 1.,  2*0.
 19,  40,  61,  20,  41,  62,  21,  42,  63
 nx_el1 1,  22,  43,  2,  23,  44,  3,  24,  45,  4,  25,  46,  5,  26,  47,  6,  27,  48,  7,  28,  49,  8,  29,  50,  9,  30,  51,
 19,  40,  61,  20,  41,  62,  21,  42,  63
 10,  31,  52,  11,  32,  53,  12,  33,  54,  13,  34,  55,  14,  35,  56,  15,  36,  57,  16,  37,  58,  17,  38,  59,  18,  39,  60
 nx_el1 1,  22,  43,  2,  23,  44,  3,  24,  45,  4,  25,  46,  5,  26,  47,  6,  27,  48,  7,  28,  49,  8,  29,  50,  9,  30,  51,
 nx_el1 1,  22,  43,  2,  23,  44,  3,  24,  45,  4,  25,  46,  5,  26,  47,  6,  27,  48,  7,  28,  49,  8,  29,  50,  9,  30,  51,
 nx_el1 1,  22,  43,  2,  23,  44,  3,  24,  45,  4,  25,  46,  5,  26,  47,  6,  27,  48,  7,  28,  49,  8,  29,  50,  9,  30,  51,
 nx_el1 1,  22,  43,  2,  23,  44,  3,  24,  45,  4,  25,  46,  5,  26,  47,  6,  27,  48,  7,  28,  49,  8,  29,  50,  9,  30,  51,
 10,  31,  52,  11,  32,  53,  12,  33,  54,  13,  34,  55,  14,  35,  56,  15,  36,  57,  16,  37,  58,  17,  38,  59,  18,  39,  60
 10,  31,  52,  11,  32,  53,  12,  33,  54,  13,  34,  55,  14,  35,  56,  15,  36,  57,  16,  37,  58,  17,  38,  59,  18,  39,  60
 10,  31,  52,  11,  32,  53,  12,  33,  54,  13,  34,  55,  14,  35,  56,  15,  36,  57,  16,  37,  58,  17,  38,  59,  18,  39,  60
 10,  31,  52,  11,  32,  53,  12,  33,  54,  13,  34,  55,  14,  35,  56,  15,  36,  57,  16,  37,  58,  17,  38,  59,  18,  39,  60
 nx_el1 1,  22,  43,  2,  23,  44,  3,  24,  45,  4,  25,  46,  5,  26,  47,  6,  27,  48,  7,  28,  49,  8,  29,  50,  9,  30,  51,
 19,  40,  61,  20,  41,  62,  21,  42,  63
 19,  40,  61,  20,  41,  62,  21,  42,  63
 19,  40,  61,  20,  41,  62,  21,  42,  63
 10,  31,  52,  11,  32,  53,  12,  33,  54,  13,  34,  55,  14,  35,  56,  15,  36,  57,  16,  37,  58,  17,  38,  59,  18,  39,  60
 10,  31,  52,  11,  32,  53,  12,  33,  54,  13,  34,  55,  14,  35,  56,  15,  36,  57,  16,  37,  58,  17,  38,  59,  18,  39,  60
 19,  40,  61,  20,  41,  62,  21,  42,  63
 10,  31,  52,  11,  32,  53,  12,  33,  54,  13,  34,  55,  14,  35,  56,  15,  36,  57,  16,  37,  58,  17,  38,  59,  18,  39,  60
 19,  40,  61,  20,  41,  62,  21,  42,  63
 10,  31,  52,  11,  32,  53,  12,  33,  54,  13,  34,  55,  14,  35,  56,  15,  36,  57,  16,  37,  58,  17,  38,  59,  18,  39,  60
 19,  40,  61,  20,  41,  62,  21,  42,  63
 19,  40,  61,  20,  41,  62,  21,  42,  63
 19,  40,  61,  20,  41,  62,  21,  42,  63
 19,  40,  61,  20,  41,  62,  21,  42,  63
 19,  40,  61,  20,  41,  62,  21,  42,  63
 19,  40,  61,  20,  41,  62,  21,  42,  63
 BG1 1.,  2*0.
 19,  40,  61,  20,  41,  62,  21,  42,  63
 10,  31,  52,  11,  32,  53,  12,  33,  54,  13,  34,  55,  14,  35,  56,  15,  36,  57,  16,  37,  58,  17,  38,  59,  18,  39,  60
 BG1 1.,  2*0.
 19,  40,  61,  20,  41,  62,  21,  42,  63
 nx_el1 1,  22,  43,  2,  23,  44,  3,  24,  45,  4,  25,  46,  5,  26,  47,  6,  27,  48,  7,  28,  49,  8,  29,  50,  9,  30,  51,
 10,  31,  52,  11,  32,  53,  12,  33,  54,  13,  34,  55,  14,  35,  56,  15,  36,  57,  16,  37,  58,  17,  38,  59,  18,  39,  60
 19,  40,  61,  20,  41,  62,  21,  42,  63
     This is a supercell, fractional translations are disabled
 BG1 1.,  2*0.
 nx_el1 1,  22,  43,  2,  23,  44,  3,  24,  45,  4,  25,  46,  5,  26,  47,  6,  27,  48,  7,  28,  49,  8,  29,  50,  9,  30,  51,
 10,  31,  52,  11,  32,  53,  12,  33,  54,  13,  34,  55,  14,  35,  56,  15,  36,  57,  16,  37,  58,  17,  38,  59,  18,  39,  60
 19,  40,  61,  20,  41,  62,  21,  42,  63
 
     Parallelization info
     --------------------
     sticks:   dense  smooth     PW     G-vecs:    dense   smooth      PW
     Min          20      20      7                  400      400      77
     Max          21      21      8                  405      405      81
     Sum         665     665    225                12893    12893    2553
 


     bravais-lattice index     =            1
     lattice parameter (alat)  =      10.1800  a.u.
     unit-cell volume          =    1054.9778 (a.u.)^3
     number of atoms/cell      =            8
     number of atomic types    =            1
     number of electrons       =        32.00
     number of Kohn-Sham states=           16
     kinetic-energy cutoff     =      20.0000  Ry
     charge density cutoff     =      80.0000  Ry
     convergence threshold     =      1.0E-08
     mixing beta               =       0.5000
     number of iterations used =            8  plain     mixing
     Exchange-correlation      =  SLA  PW   PBE  PBE ( 1 4 3 4 0)
     EXX-fraction              =        0.00
 
     Using Berry phase electric field
     In a.u.(Ry)  cartesian system of reference
        0.0000000000
        0.0000000000
        0.0000000000
     In a.u.(Ry)  crystal system of reference
        0.0000000000
        0.0000000000
        0.0000000000
     Number of iterative cycles:   1
 

     celldm(1)=  10.180000  celldm(2)=   0.000000  celldm(3)=   0.000000
     celldm(4)=   0.000000  celldm(5)=   0.000000  celldm(6)=   0.000000

     crystal axes: (cart. coord. in units of alat)
               a(1) = (   1.000000   0.000000   0.000000 )  
               a(2) = (   0.000000   1.000000   0.000000 )  
               a(3) = (   0.000000   0.000000   1.000000 )  

     reciprocal axes: (cart. coord. in units 2 pi/alat)
               b(1) = (  1.000000  0.000000  0.000000 )  
               b(2) = (  0.000000  1.000000  0.000000 )  
               b(3) = (  0.000000  0.000000  1.000000 )  


     PseudoPot. # 1 for Si read from file:
     /usr/local/usp/espresso/5.0/espresso-5.0/pseudo/Si.pbe-rrkj.UPF
     MD5 check sum: cf7ab5690cd9a85b22c4813f7e365554
     Pseudo is Norm-conserving, Zval =  4.0
     Generated by new atomic code, or converted to UPF format
     Using radial grid of  883 points,  3 beta functions with: 
                l(1) =   0
                l(2) =   0
                l(3) =   1

     atomic species   valence    mass     pseudopotential
        Si             4.00    28.08600     Si( 1.00)

     No symmetry found



   Cartesian axes

     site n.     atom                  positions (alat units)
         1           Si  tau(   1) = (  -0.1250000  -0.1250000  -0.1250000  )
         2           Si  tau(   2) = (   0.3750000   0.3750000  -0.1250000  )
         3           Si  tau(   3) = (   0.3750000  -0.1250000   0.3750000  )
         4           Si  tau(   4) = (  -0.1250000   0.3750000   0.3750000  )
         5           Si  tau(   5) = (   0.1250000   0.1250000   0.1250000  )
         6           Si  tau(   6) = (   0.6250000   0.6250000   0.1250000  )
         7           Si  tau(   7) = (   0.6250000   0.1250000   0.6250000  )
         8           Si  tau(   8) = (   0.1250000   0.6250000   0.6250000  )

     number of k points=    63
                       cart. coord. in units 2pi/alat
        k(    1) = (   0.0000000   0.0000000   0.0000000), wk =   0.0317460
        k(    2) = (   0.0000000   0.0000000   0.1428571), wk =   0.0317460
        k(    3) = (   0.0000000   0.0000000   0.2857143), wk =   0.0317460
        k(    4) = (   0.0000000   0.0000000   0.4285714), wk =   0.0317460
        k(    5) = (   0.0000000   0.0000000   0.5714286), wk =   0.0317460
        k(    6) = (   0.0000000   0.0000000   0.7142857), wk =   0.0317460
        k(    7) = (   0.0000000   0.0000000   0.8571429), wk =   0.0317460
        k(    8) = (   0.0000000   0.3333333   0.0000000), wk =   0.0317460
        k(    9) = (   0.0000000   0.3333333   0.1428571), wk =   0.0317460
        k(   10) = (   0.0000000   0.3333333   0.2857143), wk =   0.0317460
        k(   11) = (   0.0000000   0.3333333   0.4285714), wk =   0.0317460
        k(   12) = (   0.0000000   0.3333333   0.5714286), wk =   0.0317460
        k(   13) = (   0.0000000   0.3333333   0.7142857), wk =   0.0317460
        k(   14) = (   0.0000000   0.3333333   0.8571429), wk =   0.0317460
        k(   15) = (   0.0000000   0.6666667   0.0000000), wk =   0.0317460
        k(   16) = (   0.0000000   0.6666667   0.1428571), wk =   0.0317460
        k(   17) = (   0.0000000   0.6666667   0.2857143), wk =   0.0317460
        k(   18) = (   0.0000000   0.6666667   0.4285714), wk =   0.0317460
        k(   19) = (   0.0000000   0.6666667   0.5714286), wk =   0.0317460
        k(   20) = (   0.0000000   0.6666667   0.7142857), wk =   0.0317460
        k(   21) = (   0.0000000   0.6666667   0.8571429), wk =   0.0317460
        k(   22) = (   0.3333333   0.0000000   0.0000000), wk =   0.0317460
        k(   23) = (   0.3333333   0.0000000   0.1428571), wk =   0.0317460
        k(   24) = (   0.3333333   0.0000000   0.2857143), wk =   0.0317460
        k(   25) = (   0.3333333   0.0000000   0.4285714), wk =   0.0317460
        k(   26) = (   0.3333333   0.0000000   0.5714286), wk =   0.0317460
        k(   27) = (   0.3333333   0.0000000   0.7142857), wk =   0.0317460
        k(   28) = (   0.3333333   0.0000000   0.8571429), wk =   0.0317460
        k(   29) = (   0.3333333   0.3333333   0.0000000), wk =   0.0317460
        k(   30) = (   0.3333333   0.3333333   0.1428571), wk =   0.0317460
        k(   31) = (   0.3333333   0.3333333   0.2857143), wk =   0.0317460
        k(   32) = (   0.3333333   0.3333333   0.4285714), wk =   0.0317460
        k(   33) = (   0.3333333   0.3333333   0.5714286), wk =   0.0317460
        k(   34) = (   0.3333333   0.3333333   0.7142857), wk =   0.0317460
        k(   35) = (   0.3333333   0.3333333   0.8571429), wk =   0.0317460
        k(   36) = (   0.3333333   0.6666667   0.0000000), wk =   0.0317460
        k(   37) = (   0.3333333   0.6666667   0.1428571), wk =   0.0317460
        k(   38) = (   0.3333333   0.6666667   0.2857143), wk =   0.0317460
        k(   39) = (   0.3333333   0.6666667   0.4285714), wk =   0.0317460
        k(   40) = (   0.3333333   0.6666667   0.5714286), wk =   0.0317460
        k(   41) = (   0.3333333   0.6666667   0.7142857), wk =   0.0317460
        k(   42) = (   0.3333333   0.6666667   0.8571429), wk =   0.0317460
        k(   43) = (   0.6666667   0.0000000   0.0000000), wk =   0.0317460
        k(   44) = (   0.6666667   0.0000000   0.1428571), wk =   0.0317460
        k(   45) = (   0.6666667   0.0000000   0.2857143), wk =   0.0317460
        k(   46) = (   0.6666667   0.0000000   0.4285714), wk =   0.0317460
        k(   47) = (   0.6666667   0.0000000   0.5714286), wk =   0.0317460
        k(   48) = (   0.6666667   0.0000000   0.7142857), wk =   0.0317460
        k(   49) = (   0.6666667   0.0000000   0.8571429), wk =   0.0317460
        k(   50) = (   0.6666667   0.3333333   0.0000000), wk =   0.0317460
        k(   51) = (   0.6666667   0.3333333   0.1428571), wk =   0.0317460
        k(   52) = (   0.6666667   0.3333333   0.2857143), wk =   0.0317460
        k(   53) = (   0.6666667   0.3333333   0.4285714), wk =   0.0317460
        k(   54) = (   0.6666667   0.3333333   0.5714286), wk =   0.0317460
        k(   55) = (   0.6666667   0.3333333   0.7142857), wk =   0.0317460
        k(   56) = (   0.6666667   0.3333333   0.8571429), wk =   0.0317460
        k(   57) = (   0.6666667   0.6666667   0.0000000), wk =   0.0317460
        k(   58) = (   0.6666667   0.6666667   0.1428571), wk =   0.0317460
        k(   59) = (   0.6666667   0.6666667   0.2857143), wk =   0.0317460
        k(   60) = (   0.6666667   0.6666667   0.4285714), wk =   0.0317460
        k(   61) = (   0.6666667   0.6666667   0.5714286), wk =   0.0317460
        k(   62) = (   0.6666667   0.6666667   0.7142857), wk =   0.0317460
        k(   63) = (   0.6666667   0.6666667   0.8571429), wk =   0.0317460

     Dense  grid:    12893 G-vectors     FFT dimensions: (  30,  30,  30)

     Largest allocated arrays     est. size (Mb)     dimensions
        Kohn-Sham Wavefunctions         0.01 Mb     (     50,   16)
        NL pseudopotentials             0.03 Mb     (     50,   40)
        Each V/rho on FFT grid          0.01 Mb     (    900)
        Each G-vector array             0.00 Mb     (    405)
        G-vector shells                 0.00 Mb     (    112)
     Largest temporary arrays     est. size (Mb)     dimensions
        Auxiliary wavefunctions         0.05 Mb     (     50,   64)
        Each subspace H/S matrix        0.00 Mb     (  16,  16)
        Each <psi_i|beta_j> matrix      0.01 Mb     (     40,   16)
        Arrays for rho mixing           0.11 Mb     (    900,   8)

     Initial potential from superposition of free atoms

     starting charge   31.99557, renormalised to   32.00000
     Starting wfc are random

     total cpu time spent up to now is        1.0 secs

     per-process dynamical memory:     6.1 Mb

     Self-consistent Calculation

     iteration #  1     ecut=    20.00 Ry     beta=0.50
     Davidson diagonalization with overlap
     ethr =  1.00E-02,  avg # of iterations =  7.7

     Threshold (ethr) on eigenvalues was too large:
     Diagonalizing with lowered threshold

     Davidson diagonalization with overlap
     ethr =  7.60E-04,  avg # of iterations =  1.6
 
     Expectation value of exp(iGx): (9.81798346552967688E-2,-1.36622455172133363E-4),  1.
     Electronic Dipole per cell (Ry a.u.) -6.37694119265401656E-3
     Ionic Dipole per cell (Ry a.u.) 115.17355251966487
 
     Expectation value of exp(iGx): (9.80155656338531078E-2,3.22207284857440343E-4),  1.
     Electronic Dipole per cell (Ry a.u.) 1.50643932245441235E-2
     Ionic Dipole per cell (Ry a.u.) 115.17355251966487
 
     Expectation value of exp(iGx): (0.34765894091317667,1.55235136653231209E-3),  1.
     Electronic Dipole per cell (Ry a.u.) 2.0461932250486356E-2
     Ionic Dipole per cell (Ry a.u.) 115.17355251966487
Electronic Dipole on Cartesian axes
 1,  -6.37694119265401656E-3
 2,  1.50643932245441235E-2
 3,  2.0461932250486356E-2
Ionic Dipole on Cartesian axes
 1,  115.17355251966487
 2,  115.17355251966487
 3,  115.17355251966487

     total cpu time spent up to now is       10.0 secs

     total energy              =     -62.94988947 Ry
     Harris-Foulkes estimate   =     -62.99981644 Ry
     estimated scf accuracy    <       0.24570526 Ry

     iteration #  2     ecut=    20.00 Ry     beta=0.50
     Davidson diagonalization with overlap
     ethr =  7.68E-04,  avg # of iterations =  1.0
 
     Expectation value of exp(iGx): (9.54003737326788309E-2,-1.21984193457535476E-4),  1.
     Electronic Dipole per cell (Ry a.u.) -5.85957543209306847E-3
     Ionic Dipole per cell (Ry a.u.) 115.17355251966487
 
     Expectation value of exp(iGx): (9.5301014227406361E-2,2.32629402112039695E-4),  1.
     Electronic Dipole per cell (Ry a.u.) 1.11861109472762774E-2
     Ionic Dipole per cell (Ry a.u.) 115.17355251966487
 
     Expectation value of exp(iGx): (0.34500764339196016,1.16343438757903861E-3),  1.
     Electronic Dipole per cell (Ry a.u.) 1.54534138843114496E-2
     Ionic Dipole per cell (Ry a.u.) 115.17355251966487
Electronic Dipole on Cartesian axes
 1,  -5.85957543209306847E-3
 2,  1.11861109472762774E-2
 3,  1.54534138843114496E-2
Ionic Dipole on Cartesian axes
 1,  115.17355251966487
 2,  115.17355251966487
 3,  115.17355251966487

     total cpu time spent up to now is       13.7 secs

     total energy              =     -62.94857632 Ry
     Harris-Foulkes estimate   =     -62.95601773 Ry
     estimated scf accuracy    <       0.04558132 Ry

     iteration #  3     ecut=    20.00 Ry     beta=0.50
     Davidson diagonalization with overlap
     ethr =  1.42E-04,  avg # of iterations =  2.0
 
     Expectation value of exp(iGx): (9.11461280414227609E-2,-1.21199354702717301E-4),  1.
     Electronic Dipole per cell (Ry a.u.) -6.09361105517418605E-3
     Ionic Dipole per cell (Ry a.u.) 115.17355251966487
 
     Expectation value of exp(iGx): (9.1088546748745558E-2,8.98222466631052734E-5),  1.
     Electronic Dipole per cell (Ry a.u.) 4.5189017881761516E-3
     Ionic Dipole per cell (Ry a.u.) 115.17355251966487
 
     Expectation value of exp(iGx): (0.33921161858162313,8.08481353403822699E-4),  1.
     Electronic Dipole per cell (Ry a.u.) 1.09222313042255902E-2
     Ionic Dipole per cell (Ry a.u.) 115.17355251966487
Electronic Dipole on Cartesian axes
 1,  -6.09361105517418605E-3
 2,  4.5189017881761516E-3
 3,  1.09222313042255902E-2
Ionic Dipole on Cartesian axes
 1,  115.17355251966487
 2,  115.17355251966487
 3,  115.17355251966487

     total cpu time spent up to now is       17.6 secs

     total energy              =     -62.95266083 Ry
     Harris-Foulkes estimate   =     -62.95284540 Ry
     estimated scf accuracy    <       0.00083506 Ry

     iteration #  4     ecut=    20.00 Ry     beta=0.50
     Davidson diagonalization with overlap
     ethr =  2.61E-06,  avg # of iterations =  3.9
 
     Expectation value of exp(iGx): (9.00503568941211502E-2,1.9677341292815923E-5),  1.
     Electronic Dipole per cell (Ry a.u.) 1.00136838570862767E-3
     Ionic Dipole per cell (Ry a.u.) 115.17355251966487
 
     Expectation value of exp(iGx): (9.00493115558634455E-2,2.76207578139785171E-6),  1.
     Electronic Dipole per cell (Ry a.u.) 1.40562054389205542E-4
     Ionic Dipole per cell (Ry a.u.) 115.17355251966487
 
     Expectation value of exp(iGx): (0.3370584365712177,-6.02127182974796342E-5),  1.
     Electronic Dipole per cell (Ry a.u.) -8.18645596988372046E-4
     Ionic Dipole per cell (Ry a.u.) 115.17355251966487
Electronic Dipole on Cartesian axes
 1,  1.00136838570862767E-3
 2,  1.40562054389205542E-4
 3,  -8.18645596988372046E-4
Ionic Dipole on Cartesian axes
 1,  115.17355251966487
 2,  115.17355251966487
 3,  115.17355251966487

     total cpu time spent up to now is       22.9 secs

     total energy              =     -62.95344706 Ry
     Harris-Foulkes estimate   =     -62.95348233 Ry
     estimated scf accuracy    <       0.00009029 Ry

     iteration #  5     ecut=    20.00 Ry     beta=0.50
     Davidson diagonalization with overlap
     ethr =  2.82E-07,  avg # of iterations =  2.1
 
     Expectation value of exp(iGx): (8.97625661071309727E-2,4.7782462302317978E-6),  1.
     Electronic Dipole per cell (Ry a.u.) 2.4394176906200981E-4
     Ionic Dipole per cell (Ry a.u.) 115.17355251966487
 
     Expectation value of exp(iGx): (8.97636298086367107E-2,7.51083926136271577E-6),  1.
     Electronic Dipole per cell (Ry a.u.) 3.83443132484677384E-4
     Ionic Dipole per cell (Ry a.u.) 115.17355251966487
 
     Expectation value of exp(iGx): (0.33652923737935708,8.30784409255299029E-6),  1.
     Electronic Dipole per cell (Ry a.u.) 1.13130169951322569E-4
     Ionic Dipole per cell (Ry a.u.) 115.17355251966487
Electronic Dipole on Cartesian axes
 1,  2.4394176906200981E-4
 2,  3.83443132484677384E-4
 3,  1.13130169951322569E-4
Ionic Dipole on Cartesian axes
 1,  115.17355251966487
 2,  115.17355251966487
 3,  115.17355251966487

     total cpu time spent up to now is       27.1 secs

     total energy              =     -62.95346053 Ry
     Harris-Foulkes estimate   =     -62.95346081 Ry
     estimated scf accuracy    <       0.00000231 Ry

     iteration #  6     ecut=    20.00 Ry     beta=0.50
     Davidson diagonalization with overlap
     ethr =  7.23E-09,  avg # of iterations =  3.3
 
     Expectation value of exp(iGx): (8.97555562566877269E-2,-3.34861332369014281E-7),  1.
     Electronic Dipole per cell (Ry a.u.) -1.7096868102742899E-5
     Ionic Dipole per cell (Ry a.u.) 115.17355251966487
 
     Expectation value of exp(iGx): (8.97560656125911682E-2,-1.15121131819132152E-6),  1.
     Electronic Dipole per cell (Ry a.u.) -5.87765575423422379E-5
     Ionic Dipole per cell (Ry a.u.) 115.17355251966487
 
     Expectation value of exp(iGx): (0.3364725288359815,1.59141980145291345E-6),  1.
     Electronic Dipole per cell (Ry a.u.) 2.16744481336179177E-5
     Ionic Dipole per cell (Ry a.u.) 115.17355251966487
Electronic Dipole on Cartesian axes
 1,  -1.7096868102742899E-5
 2,  -5.87765575423422379E-5
 3,  2.16744481336179177E-5
Ionic Dipole on Cartesian axes
 1,  115.17355251966487
 2,  115.17355251966487
 3,  115.17355251966487

     total cpu time spent up to now is       31.9 secs

     total energy              =     -62.95346153 Ry
     Harris-Foulkes estimate   =     -62.95346146 Ry
     estimated scf accuracy    <       0.00000008 Ry

     iteration #  7     ecut=    20.00 Ry     beta=0.50
     Davidson diagonalization with overlap
     ethr =  2.50E-10,  avg # of iterations =  3.4
 
     Expectation value of exp(iGx): (8.9750991670033517E-2,-1.76215993156977726E-7),  1.
     Electronic Dipole per cell (Ry a.u.) -8.99744020707571742E-6
     Ionic Dipole per cell (Ry a.u.) 115.17355251966487
 
     Expectation value of exp(iGx): (8.9750966978640781E-2,-1.00708821928155968E-6),  1.
     Electronic Dipole per cell (Ry a.u.) -5.1421090483127387E-5
     Ionic Dipole per cell (Ry a.u.) 115.17355251966487
 
     Expectation value of exp(iGx): (0.33645745451096531,2.98318384386092643E-6),  1.
     Electronic Dipole per cell (Ry a.u.) 4.06314916729025305E-5
     Ionic Dipole per cell (Ry a.u.) 115.17355251966487
Electronic Dipole on Cartesian axes
 1,  -8.99744020707571742E-6
 2,  -5.1421090483127387E-5
 3,  4.06314916729025305E-5
Ionic Dipole on Cartesian axes
 1,  115.17355251966487
 2,  115.17355251966487
 3,  115.17355251966487

     total cpu time spent up to now is       36.6 secs

     End of self-consistent calculation

          k = 0.0000 0.0000 0.0000 (  1575 PWs)   bands (ev):

    -5.5814  -1.3521  -1.3521  -1.3521  -1.3521  -1.3521  -1.3521   3.5785
     3.5785   3.5785   3.5785   3.5786   3.5786   6.4862   6.4865   6.4865

          k = 0.0000 0.0000 0.1429 (  1599 PWs)   bands (ev):

    -5.4903  -2.4218  -1.3214  -1.3214  -1.3213  -1.3213  -0.1751   3.3331
     3.3331   3.3331   3.3331   3.6605   3.6605   5.9836   6.1467   6.1467

          k = 0.0000 0.0000 0.2857 (  1582 PWs)   bands (ev):

    -5.2180  -3.3588  -1.2479  -1.2479  -1.2478  -1.2478   1.0778   2.8850
     2.8850   2.8850   2.8850   3.9045   3.9045   4.9087   5.4913   5.4913

          k = 0.0000 0.0000 0.4286 (  1602 PWs)   bands (ev):

    -4.7677  -4.1452  -1.1839  -1.1839  -1.1839  -1.1839   2.3697   2.5822
     2.5822   2.5822   2.5822   3.6632   4.3033   4.3033   4.8438   4.8438

          k = 0.0000 0.0000 0.5714 (  1602 PWs)   bands (ev):

    -4.7677  -4.1452  -1.1839  -1.1839  -1.1839  -1.1839   2.3697   2.5822
     2.5822   2.5822   2.5822   3.6632   4.3033   4.3033   4.8438   4.8438

          k = 0.0000 0.0000 0.7143 (  1582 PWs)   bands (ev):

    -5.2180  -3.3588  -1.2479  -1.2479  -1.2478  -1.2478   1.0778   2.8850
     2.8850   2.8850   2.8850   3.9045   3.9045   4.9087   5.4913   5.4913

          k = 0.0000 0.0000 0.8571 (  1599 PWs)   bands (ev):

    -5.4903  -2.4218  -1.3214  -1.3214  -1.3213  -1.3213  -0.1751   3.3331
     3.3331   3.3331   3.3331   3.6605   3.6605   5.9836   6.1467   6.1467

          k = 0.0000 0.3333 0.0000 (  1594 PWs)   bands (ev):

    -5.0875  -3.6384  -1.2223  -1.2223  -1.2223  -1.2223   1.5059   2.7568
     2.7568   2.7568   2.7568   4.0205   4.0205   4.5036   5.2672   5.2673

          k = 0.0000 0.3333 0.1429 (  1586 PWs)   bands (ev):

    -4.9995  -3.5636  -2.1369  -1.6220  -0.8459  -0.3008   1.3723   2.1959
     2.6305   3.1659   3.5243   3.6876   3.9255   4.0204   4.9207   5.6970

          k = 0.0000 0.3333 0.2857 (  1602 PWs)   bands (ev):

    -4.7373  -3.3443  -2.9831  -2.0765  -0.4415   0.5747   1.0090   1.9684
     2.7517   3.0507   3.0711   3.8604   4.0920   4.2016   4.2507   5.9687

          k = 0.0000 0.3333 0.4286 (  1598 PWs)   bands (ev):

    -4.3060  -3.7156  -2.9973  -2.5564   0.0184   0.5217   1.4023   2.0790
     2.2236   2.4675   3.0862   3.6014   4.2730   4.4198   4.7474   5.5848

          k = 0.0000 0.3333 0.5714 (  1598 PWs)   bands (ev):

    -4.3060  -3.7156  -2.9973  -2.5564   0.0183   0.5218   1.4024   2.0791
     2.2235   2.4674   3.0861   3.6014   4.2730   4.4198   4.7474   5.5848

          k = 0.0000 0.3333 0.7143 (  1602 PWs)   bands (ev):

    -4.7373  -3.3443  -2.9831  -2.0765  -0.4416   0.5747   1.0090   1.9684
     2.7517   3.0507   3.0711   3.8604   4.0920   4.2016   4.2508   5.9687

          k = 0.0000 0.3333 0.8571 (  1586 PWs)   bands (ev):

    -4.9995  -3.5636  -2.1370  -1.6220  -0.8460  -0.3008   1.3723   2.1959
     2.6305   3.1659   3.5243   3.6876   3.9255   4.0204   4.9207   5.6970

          k = 0.0000 0.6667 0.0000 (  1594 PWs)   bands (ev):

    -5.0875  -3.6384  -1.2223  -1.2223  -1.2223  -1.2223   1.5059   2.7568
     2.7568   2.7568   2.7568   4.0205   4.0205   4.5036   5.2672   5.2673

          k = 0.0000 0.6667 0.1429 (  1586 PWs)   bands (ev):

    -4.9995  -3.5636  -2.1370  -1.6220  -0.8460  -0.3008   1.3723   2.1959
     2.6305   3.1659   3.5243   3.6876   3.9255   4.0204   4.9207   5.6970

          k = 0.0000 0.6667 0.2857 (  1602 PWs)   bands (ev):

    -4.7373  -3.3443  -2.9831  -2.0765  -0.4416   0.5747   1.0090   1.9684
     2.7517   3.0507   3.0711   3.8604   4.0920   4.2016   4.2508   5.9687

          k = 0.0000 0.6667 0.4286 (  1598 PWs)   bands (ev):

    -4.3060  -3.7156  -2.9973  -2.5564   0.0183   0.5218   1.4024   2.0791
     2.2235   2.4674   3.0861   3.6014   4.2730   4.4198   4.7474   5.5848

          k = 0.0000 0.6667 0.5714 (  1598 PWs)   bands (ev):

    -4.3060  -3.7156  -2.9973  -2.5564   0.0184   0.5217   1.4023   2.0790
     2.2236   2.4675   3.0862   3.6014   4.2730   4.4198   4.7474   5.5848

          k = 0.0000 0.6667 0.7143 (  1602 PWs)   bands (ev):

    -4.7373  -3.3443  -2.9831  -2.0765  -0.4415   0.5747   1.0090   1.9684
     2.7517   3.0507   3.0711   3.8604   4.0920   4.2016   4.2507   5.9687

          k = 0.0000 0.6667 0.8571 (  1586 PWs)   bands (ev):

    -4.9995  -3.5636  -2.1369  -1.6220  -0.8459  -0.3008   1.3723   2.1959
     2.6305   3.1659   3.5243   3.6876   3.9255   4.0204   4.9207   5.6970

          k = 0.3333 0.0000 0.0000 (  1594 PWs)   bands (ev):

    -5.0875  -3.6384  -1.2223  -1.2223  -1.2223  -1.2223   1.5059   2.7568
     2.7568   2.7568   2.7568   4.0205   4.0205   4.5036   5.2672   5.2673

          k = 0.3333 0.0000 0.1429 (  1586 PWs)   bands (ev):

    -4.9995  -3.5636  -2.1369  -1.6220  -0.8459  -0.3008   1.3723   2.1959
     2.6305   3.1659   3.5243   3.6876   3.9255   4.0204   4.9207   5.6970

          k = 0.3333 0.0000 0.2857 (  1602 PWs)   bands (ev):

    -4.7373  -3.3443  -2.9831  -2.0765  -0.4415   0.5747   1.0090   1.9684
     2.7517   3.0507   3.0711   3.8604   4.0920   4.2016   4.2507   5.9687

          k = 0.3333 0.0000 0.4286 (  1598 PWs)   bands (ev):

    -4.3060  -3.7156  -2.9973  -2.5564   0.0184   0.5217   1.4023   2.0790
     2.2236   2.4675   3.0862   3.6014   4.2730   4.4198   4.7474   5.5848

          k = 0.3333 0.0000 0.5714 (  1598 PWs)   bands (ev):

    -4.3060  -3.7156  -2.9973  -2.5564   0.0183   0.5218   1.4024   2.0791
     2.2235   2.4674   3.0861   3.6014   4.2730   4.4198   4.7474   5.5848

          k = 0.3333 0.0000 0.7143 (  1602 PWs)   bands (ev):

    -4.7373  -3.3443  -2.9831  -2.0765  -0.4416   0.5747   1.0090   1.9684
     2.7517   3.0507   3.0711   3.8604   4.0920   4.2016   4.2508   5.9687

          k = 0.3333 0.0000 0.8571 (  1586 PWs)   bands (ev):

    -4.9995  -3.5636  -2.1370  -1.6220  -0.8460  -0.3008   1.3723   2.1959
     2.6305   3.1659   3.5243   3.6876   3.9255   4.0204   4.9207   5.6970

          k = 0.3333 0.3333 0.0000 (  1602 PWs)   bands (ev):

    -4.6119  -3.2416  -3.2416  -2.2366  -0.2947   0.8543   0.8543   1.9699
     2.7855   2.8410   2.8410   4.0239   4.1432   4.1432   4.3344   5.9165

          k = 0.3333 0.3333 0.1429 (  1596 PWs)   bands (ev):

    -4.5300  -3.1933  -3.1933  -2.4031  -0.3443   0.5324   0.5324   2.2093
     2.3852   3.1358   3.1358   4.2715   4.2715   4.3999   4.6291   5.8275

          k = 0.3333 0.3333 0.2857 (  1598 PWs)   bands (ev):

    -4.2878  -3.0719  -3.0719  -2.8469  -0.2599  -0.0169  -0.0168   1.3739
     3.3212   3.5702   3.5702   4.5835   4.5836   4.5898   5.3736   5.5796

          k = 0.3333 0.3333 0.4286 (  1592 PWs)   bands (ev):

    -3.8989  -3.3948  -2.9569  -2.9569  -0.3883  -0.3883   0.0831   0.6430
     3.8274   3.8274   4.4021   4.7876   4.7876   4.8827   5.2360   5.2920

          k = 0.3333 0.3333 0.5714 (  1592 PWs)   bands (ev):

    -3.8989  -3.3948  -2.9569  -2.9569  -0.3883  -0.3883   0.0832   0.6430
     3.8274   3.8274   4.4021   4.7875   4.7875   4.8827   5.2360   5.2920

          k = 0.3333 0.3333 0.7143 (  1598 PWs)   bands (ev):

    -4.2878  -3.0719  -3.0719  -2.8470  -0.2598  -0.0169  -0.0168   1.3738
     3.3212   3.5702   3.5702   4.5835   4.5835   4.5898   5.3736   5.5796

          k = 0.3333 0.3333 0.8571 (  1596 PWs)   bands (ev):

    -4.5300  -3.1933  -3.1933  -2.4031  -0.3442   0.5324   0.5324   2.2092
     2.3852   3.1358   3.1358   4.2715   4.2715   4.3999   4.6291   5.8275

          k = 0.3333 0.6667 0.0000 (  1602 PWs)   bands (ev):

    -4.6119  -3.2416  -3.2416  -2.2366  -0.2948   0.8543   0.8543   1.9700
     2.7855   2.8410   2.8410   4.0239   4.1432   4.1433   4.3344   5.9164

          k = 0.3333 0.6667 0.1429 (  1596 PWs)   bands (ev):

    -4.5300  -3.1933  -3.1932  -2.4031  -0.3443   0.5324   0.5324   2.2093
     2.3853   3.1358   3.1358   4.2715   4.2715   4.3998   4.6291   5.8275

          k = 0.3333 0.6667 0.2857 (  1598 PWs)   bands (ev):

    -4.2878  -3.0719  -3.0719  -2.8470  -0.2598  -0.0169  -0.0168   1.3738
     3.3212   3.5702   3.5702   4.5835   4.5836   4.5898   5.3736   5.5796

          k = 0.3333 0.6667 0.4286 (  1592 PWs)   bands (ev):

    -3.8989  -3.3948  -2.9570  -2.9569  -0.3883  -0.3882   0.0832   0.6430
     3.8274   3.8274   4.4022   4.7875   4.7876   4.8827   5.2359   5.2920

          k = 0.3333 0.6667 0.5714 (  1592 PWs)   bands (ev):

    -3.8989  -3.3948  -2.9570  -2.9569  -0.3883  -0.3882   0.0832   0.6430
     3.8274   3.8274   4.4022   4.7875   4.7876   4.8827   5.2359   5.2920

          k = 0.3333 0.6667 0.7143 (  1598 PWs)   bands (ev):

    -4.2878  -3.0719  -3.0719  -2.8470  -0.2598  -0.0169  -0.0168   1.3738
     3.3212   3.5702   3.5702   4.5835   4.5836   4.5898   5.3736   5.5796

          k = 0.3333 0.6667 0.8571 (  1596 PWs)   bands (ev):

    -4.5300  -3.1933  -3.1932  -2.4031  -0.3443   0.5324   0.5324   2.2093
     2.3853   3.1358   3.1358   4.2715   4.2715   4.3998   4.6291   5.8275

          k = 0.6667 0.0000 0.0000 (  1594 PWs)   bands (ev):

    -5.0875  -3.6384  -1.2223  -1.2223  -1.2223  -1.2223   1.5059   2.7568
     2.7568   2.7568   2.7568   4.0205   4.0205   4.5036   5.2672   5.2673

          k = 0.6667 0.0000 0.1429 (  1586 PWs)   bands (ev):

    -4.9995  -3.5636  -2.1370  -1.6220  -0.8460  -0.3008   1.3723   2.1959
     2.6305   3.1659   3.5243   3.6876   3.9255   4.0204   4.9207   5.6970

          k = 0.6667 0.0000 0.2857 (  1602 PWs)   bands (ev):

    -4.7373  -3.3443  -2.9831  -2.0765  -0.4416   0.5747   1.0090   1.9684
     2.7517   3.0507   3.0711   3.8604   4.0920   4.2016   4.2508   5.9687

          k = 0.6667 0.0000 0.4286 (  1598 PWs)   bands (ev):

    -4.3060  -3.7156  -2.9973  -2.5564   0.0183   0.5218   1.4024   2.0791
     2.2235   2.4674   3.0861   3.6014   4.2730   4.4198   4.7474   5.5848

          k = 0.6667 0.0000 0.5714 (  1598 PWs)   bands (ev):

    -4.3060  -3.7156  -2.9973  -2.5564   0.0184   0.5217   1.4023   2.0790
     2.2236   2.4675   3.0862   3.6014   4.2730   4.4198   4.7474   5.5848

          k = 0.6667 0.0000 0.7143 (  1602 PWs)   bands (ev):

    -4.7373  -3.3443  -2.9831  -2.0765  -0.4415   0.5747   1.0090   1.9684
     2.7517   3.0507   3.0711   3.8604   4.0920   4.2016   4.2507   5.9687

          k = 0.6667 0.0000 0.8571 (  1586 PWs)   bands (ev):

    -4.9995  -3.5636  -2.1369  -1.6220  -0.8459  -0.3008   1.3723   2.1959
     2.6305   3.1659   3.5243   3.6876   3.9255   4.0204   4.9207   5.6970

          k = 0.6667 0.3333 0.0000 (  1602 PWs)   bands (ev):

    -4.6119  -3.2416  -3.2416  -2.2366  -0.2948   0.8543   0.8543   1.9700
     2.7855   2.8410   2.8410   4.0239   4.1432   4.1433   4.3344   5.9164

          k = 0.6667 0.3333 0.1429 (  1596 PWs)   bands (ev):

    -4.5300  -3.1933  -3.1932  -2.4031  -0.3443   0.5324   0.5324   2.2093
     2.3853   3.1358   3.1358   4.2715   4.2715   4.3998   4.6291   5.8275

          k = 0.6667 0.3333 0.2857 (  1598 PWs)   bands (ev):

    -4.2878  -3.0719  -3.0719  -2.8470  -0.2598  -0.0169  -0.0168   1.3738
     3.3212   3.5702   3.5702   4.5835   4.5836   4.5898   5.3736   5.5796

          k = 0.6667 0.3333 0.4286 (  1592 PWs)   bands (ev):

    -3.8989  -3.3948  -2.9570  -2.9569  -0.3883  -0.3882   0.0832   0.6430
     3.8274   3.8274   4.4022   4.7875   4.7876   4.8827   5.2359   5.2920

          k = 0.6667 0.3333 0.5714 (  1592 PWs)   bands (ev):

    -3.8989  -3.3948  -2.9570  -2.9569  -0.3883  -0.3882   0.0832   0.6430
     3.8274   3.8274   4.4022   4.7875   4.7876   4.8827   5.2359   5.2920

          k = 0.6667 0.3333 0.7143 (  1598 PWs)   bands (ev):

    -4.2878  -3.0719  -3.0719  -2.8470  -0.2598  -0.0169  -0.0168   1.3738
     3.3212   3.5702   3.5702   4.5835   4.5836   4.5898   5.3736   5.5796

          k = 0.6667 0.3333 0.8571 (  1596 PWs)   bands (ev):

    -4.5300  -3.1933  -3.1932  -2.4031  -0.3443   0.5324   0.5324   2.2093
     2.3853   3.1358   3.1358   4.2715   4.2715   4.3998   4.6291   5.8275

          k = 0.6667 0.6667 0.0000 (  1602 PWs)   bands (ev):

    -4.6119  -3.2416  -3.2416  -2.2366  -0.2947   0.8543   0.8543   1.9699
     2.7855   2.8410   2.8410   4.0239   4.1432   4.1432   4.3344   5.9165

          k = 0.6667 0.6667 0.1429 (  1596 PWs)   bands (ev):

    -4.5300  -3.1933  -3.1933  -2.4031  -0.3442   0.5324   0.5324   2.2092
     2.3852   3.1358   3.1358   4.2715   4.2715   4.3999   4.6291   5.8275

          k = 0.6667 0.6667 0.2857 (  1598 PWs)   bands (ev):

    -4.2878  -3.0719  -3.0719  -2.8470  -0.2598  -0.0169  -0.0168   1.3738
     3.3212   3.5702   3.5702   4.5835   4.5835   4.5898   5.3736   5.5796

          k = 0.6667 0.6667 0.4286 (  1592 PWs)   bands (ev):

    -3.8989  -3.3948  -2.9569  -2.9569  -0.3883  -0.3883   0.0832   0.6430
     3.8274   3.8274   4.4021   4.7875   4.7875   4.8827   5.2360   5.2920

          k = 0.6667 0.6667 0.5714 (  1592 PWs)   bands (ev):

    -3.8989  -3.3948  -2.9569  -2.9569  -0.3883  -0.3883   0.0831   0.6430
     3.8274   3.8274   4.4021   4.7876   4.7876   4.8827   5.2360   5.2920

          k = 0.6667 0.6667 0.7143 (  1598 PWs)   bands (ev):

    -4.2878  -3.0719  -3.0719  -2.8469  -0.2599  -0.0169  -0.0168   1.3739
     3.3212   3.5702   3.5702   4.5835   4.5836   4.5898   5.3736   5.5796

          k = 0.6667 0.6667 0.8571 (  1596 PWs)   bands (ev):

    -4.5300  -3.1933  -3.1933  -2.4031  -0.3443   0.5324   0.5324   2.2093
     2.3852   3.1358   3.1358   4.2715   4.2715   4.3999   4.6291   5.8275

!    total energy              =     -62.95346155 Ry
     Harris-Foulkes estimate   =     -62.95346155 Ry
     estimated scf accuracy    <          4.3E-09 Ry

     The total energy is the sum of the following terms:

     one-electron contribution =      19.83117325 Ry
     hartree contribution      =       4.30388709 Ry
     xc contribution           =     -19.35667968 Ry
     ewald contribution        =     -67.73184220 Ry

     convergence has been achieved in   7 iterations

     Writing output data file silicon.save
 
     init_run     :      0.50s CPU      0.83s WALL (       1 calls)
     electrons    :     23.15s CPU     35.60s WALL (       1 calls)

     Called by init_run:
     wfcinit      :      0.46s CPU      0.71s WALL (       1 calls)
     potinit      :      0.01s CPU      0.01s WALL (       1 calls)

     Called by electrons:
     c_bands      :     16.33s CPU     19.48s WALL (       8 calls)
     sum_band     :      1.17s CPU      2.75s WALL (       8 calls)
     v_of_rho     :      0.02s CPU      0.02s WALL (       8 calls)
     mix_rho      :      0.00s CPU      0.00s WALL (       8 calls)

     Called by c_bands:
     init_us_2    :      0.01s CPU      0.06s WALL (    1071 calls)
     cegterg      :     15.94s CPU     16.49s WALL (     504 calls)

     Called by *egterg:
     h_psi        :      5.43s CPU      7.95s WALL (    2144 calls)
     g_psi        :      0.00s CPU      0.02s WALL (    1577 calls)
     cdiaghg      :     10.02s CPU      7.47s WALL (    2018 calls)

     Called by h_psi:
     add_vuspsi   :      0.08s CPU      0.11s WALL (    2144 calls)

     General routines
     calbec       :      0.31s CPU      0.25s WALL (    2144 calls)
     fft          :      0.04s CPU      0.02s WALL (      89 calls)
     fftw         :      5.60s CPU      9.05s WALL (   61504 calls)
     davcio       :      1.30s CPU     11.29s WALL (    4221 calls)
 
     Parallel routines
     fft_scatter  :      3.47s CPU      5.20s WALL (   61593 calls)
     EXX routines
 
     PWSCF        :    23.89s CPU        37.32s WALL

 
   This run was terminated on:  16: 7:28   6Dec2012            

=------------------------------------------------------------------------------=
   JOB DONE.
=------------------------------------------------------------------------------=
Application 131463 resources: utime ~811s, stime ~54s
